+ 0.02 0 2 ping 64 ------- 1 0.0 4.0 -1 0
- 0.02 0 2 ping 64 ------- 1 0.0 4.0 -1 0
+ 0.02 1 2 ping 64 ------- 2 1.0 4.0 -1 1
- 0.02 1 2 ping 64 ------- 2 1.0 4.0 -1 1
+ 0.02 4 3 ping 64 ------- 3 4.0 1.0 -1 2
- 0.02 4 3 ping 64 ------- 3 4.0 1.0 -1 2
+ 0.02 5 3 ping 64 ------- 4 5.0 1.0 -1 3
- 0.02 5 3 ping 64 ------- 4 5.0 1.0 -1 3
+ 0.03 0 2 ping 64 ------- 1 0.0 4.0 -1 4
- 0.03 0 2 ping 64 ------- 1 0.0 4.0 -1 4
+ 0.03 1 2 ping 64 ------- 2 1.0 4.0 -1 5
- 0.03 1 2 ping 64 ------- 2 1.0 4.0 -1 5
+ 0.03 4 3 ping 64 ------- 3 4.0 1.0 -1 6
- 0.03 4 3 ping 64 ------- 3 4.0 1.0 -1 6
+ 0.03 5 3 ping 64 ------- 4 5.0 1.0 -1 7
- 0.03 5 3 ping 64 ------- 4 5.0 1.0 -1 7
r 0.03256 0 2 ping 64 ------- 1 0.0 4.0 -1 0
+ 0.03256 2 3 ping 64 ------- 1 0.0 4.0 -1 0
- 0.03256 2 3 ping 64 ------- 1 0.0 4.0 -1 0
r 0.03256 1 2 ping 64 ------- 2 1.0 4.0 -1 1
+ 0.03256 2 3 ping 64 ------- 2 1.0 4.0 -1 1
r 0.03256 4 3 ping 64 ------- 3 4.0 1.0 -1 2
+ 0.03256 3 2 ping 64 ------- 3 4.0 1.0 -1 2
- 0.03256 3 2 ping 64 ------- 3 4.0 1.0 -1 2
r 0.03256 5 3 ping 64 ------- 4 5.0 1.0 -1 3
+ 0.03256 3 2 ping 64 ------- 4 5.0 1.0 -1 3
- 0.03512 2 3 ping 64 ------- 2 1.0 4.0 -1 1
- 0.03512 3 2 ping 64 ------- 4 5.0 1.0 -1 3
+ 0.04 0 2 ping 64 ------- 1 0.0 4.0 -1 8
- 0.04 0 2 ping 64 ------- 1 0.0 4.0 -1 8
+ 0.04 1 2 ping 64 ------- 2 1.0 4.0 -1 9
- 0.04 1 2 ping 64 ------- 2 1.0 4.0 -1 9
+ 0.04 4 3 ping 64 ------- 3 4.0 1.0 -1 10
- 0.04 4 3 ping 64 ------- 3 4.0 1.0 -1 10
+ 0.04 5 3 ping 64 ------- 4 5.0 1.0 -1 11
- 0.04 5 3 ping 64 ------- 4 5.0 1.0 -1 11
r 0.04256 0 2 ping 64 ------- 1 0.0 4.0 -1 4
+ 0.04256 2 3 ping 64 ------- 1 0.0 4.0 -1 4
- 0.04256 2 3 ping 64 ------- 1 0.0 4.0 -1 4
r 0.04256 1 2 ping 64 ------- 2 1.0 4.0 -1 5
+ 0.04256 2 3 ping 64 ------- 2 1.0 4.0 -1 5
r 0.04256 4 3 ping 64 ------- 3 4.0 1.0 -1 6
+ 0.04256 3 2 ping 64 ------- 3 4.0 1.0 -1 6
- 0.04256 3 2 ping 64 ------- 3 4.0 1.0 -1 6
r 0.04256 5 3 ping 64 ------- 4 5.0 1.0 -1 7
+ 0.04256 3 2 ping 64 ------- 4 5.0 1.0 -1 7
r 0.04512 2 3 ping 64 ------- 1 0.0 4.0 -1 0
+ 0.04512 3 4 ping 64 ------- 1 0.0 4.0 -1 0
- 0.04512 3 4 ping 64 ------- 1 0.0 4.0 -1 0
r 0.04512 3 2 ping 64 ------- 3 4.0 1.0 -1 2
+ 0.04512 2 1 ping 64 ------- 3 4.0 1.0 -1 2
- 0.04512 2 1 ping 64 ------- 3 4.0 1.0 -1 2
- 0.04512 2 3 ping 64 ------- 2 1.0 4.0 -1 5
- 0.04512 3 2 ping 64 ------- 4 5.0 1.0 -1 7
r 0.04768 2 3 ping 64 ------- 2 1.0 4.0 -1 1
+ 0.04768 3 4 ping 64 ------- 2 1.0 4.0 -1 1
r 0.04768 3 2 ping 64 ------- 4 5.0 1.0 -1 3
+ 0.04768 2 1 ping 64 ------- 4 5.0 1.0 -1 3
- 0.04768 3 4 ping 64 ------- 2 1.0 4.0 -1 1
- 0.04768 2 1 ping 64 ------- 4 5.0 1.0 -1 3
+ 0.05 0 2 ping 64 ------- 1 0.0 4.0 -1 12
- 0.05 0 2 ping 64 ------- 1 0.0 4.0 -1 12
+ 0.05 1 2 ping 64 ------- 2 1.0 4.0 -1 13
- 0.05 1 2 ping 64 ------- 2 1.0 4.0 -1 13
+ 0.05 4 3 ping 64 ------- 3 4.0 1.0 -1 14
- 0.05 4 3 ping 64 ------- 3 4.0 1.0 -1 14
+ 0.05 5 3 ping 64 ------- 4 5.0 1.0 -1 15
- 0.05 5 3 ping 64 ------- 4 5.0 1.0 -1 15
r 0.05256 0 2 ping 64 ------- 1 0.0 4.0 -1 8
+ 0.05256 2 3 ping 64 ------- 1 0.0 4.0 -1 8
- 0.05256 2 3 ping 64 ------- 1 0.0 4.0 -1 8
r 0.05256 1 2 ping 64 ------- 2 1.0 4.0 -1 9
+ 0.05256 2 3 ping 64 ------- 2 1.0 4.0 -1 9
r 0.05256 4 3 ping 64 ------- 3 4.0 1.0 -1 10
+ 0.05256 3 2 ping 64 ------- 3 4.0 1.0 -1 10
- 0.05256 3 2 ping 64 ------- 3 4.0 1.0 -1 10
r 0.05256 5 3 ping 64 ------- 4 5.0 1.0 -1 11
+ 0.05256 3 2 ping 64 ------- 4 5.0 1.0 -1 11
r 0.05512 2 3 ping 64 ------- 1 0.0 4.0 -1 4
+ 0.05512 3 4 ping 64 ------- 1 0.0 4.0 -1 4
- 0.05512 3 4 ping 64 ------- 1 0.0 4.0 -1 4
r 0.05512 3 2 ping 64 ------- 3 4.0 1.0 -1 6
+ 0.05512 2 1 ping 64 ------- 3 4.0 1.0 -1 6
- 0.05512 2 1 ping 64 ------- 3 4.0 1.0 -1 6
- 0.05512 2 3 ping 64 ------- 2 1.0 4.0 -1 9
- 0.05512 3 2 ping 64 ------- 4 5.0 1.0 -1 11
r 0.05768 3 4 ping 64 ------- 1 0.0 4.0 -1 0
+ 0.05768 4 3 ping 64 ------- 3 4.0 1.0 -1 16
- 0.05768 4 3 ping 64 ------- 3 4.0 1.0 -1 16
r 0.05768 2 1 ping 64 ------- 3 4.0 1.0 -1 2
+ 0.05768 1 2 ping 64 ------- 2 1.0 4.0 -1 17
- 0.05768 1 2 ping 64 ------- 2 1.0 4.0 -1 17
r 0.05768 2 3 ping 64 ------- 2 1.0 4.0 -1 5
+ 0.05768 3 4 ping 64 ------- 2 1.0 4.0 -1 5
r 0.05768 3 2 ping 64 ------- 4 5.0 1.0 -1 7
+ 0.05768 2 1 ping 64 ------- 4 5.0 1.0 -1 7
- 0.05768 3 4 ping 64 ------- 2 1.0 4.0 -1 5
- 0.05768 2 1 ping 64 ------- 4 5.0 1.0 -1 7
+ 0.06 0 2 ping 64 ------- 1 0.0 4.0 -1 18
- 0.06 0 2 ping 64 ------- 1 0.0 4.0 -1 18
+ 0.06 1 2 ping 64 ------- 2 1.0 4.0 -1 19
+ 0.06 4 3 ping 64 ------- 3 4.0 1.0 -1 20
+ 0.06 5 3 ping 64 ------- 4 5.0 1.0 -1 21
- 0.06 5 3 ping 64 ------- 4 5.0 1.0 -1 21
r 0.06024 3 4 ping 64 ------- 2 1.0 4.0 -1 1
+ 0.06024 4 3 ping 64 ------- 3 4.0 1.0 -1 22
r 0.06024 2 1 ping 64 ------- 4 5.0 1.0 -1 3
+ 0.06024 1 2 ping 64 ------- 2 1.0 4.0 -1 23
- 0.06024 4 3 ping 64 ------- 3 4.0 1.0 -1 20
- 0.06024 1 2 ping 64 ------- 2 1.0 4.0 -1 19
r 0.06256 0 2 ping 64 ------- 1 0.0 4.0 -1 12
+ 0.06256 2 3 ping 64 ------- 1 0.0 4.0 -1 12
- 0.06256 2 3 ping 64 ------- 1 0.0 4.0 -1 12
r 0.06256 1 2 ping 64 ------- 2 1.0 4.0 -1 13
+ 0.06256 2 3 ping 64 ------- 2 1.0 4.0 -1 13
r 0.06256 4 3 ping 64 ------- 3 4.0 1.0 -1 14
+ 0.06256 3 2 ping 64 ------- 3 4.0 1.0 -1 14
- 0.06256 3 2 ping 64 ------- 3 4.0 1.0 -1 14
r 0.06256 5 3 ping 64 ------- 4 5.0 1.0 -1 15
+ 0.06256 3 2 ping 64 ------- 4 5.0 1.0 -1 15
- 0.0628 4 3 ping 64 ------- 3 4.0 1.0 -1 22
- 0.0628 1 2 ping 64 ------- 2 1.0 4.0 -1 23
r 0.06512 2 3 ping 64 ------- 1 0.0 4.0 -1 8
+ 0.06512 3 4 ping 64 ------- 1 0.0 4.0 -1 8
- 0.06512 3 4 ping 64 ------- 1 0.0 4.0 -1 8
r 0.06512 3 2 ping 64 ------- 3 4.0 1.0 -1 10
+ 0.06512 2 1 ping 64 ------- 3 4.0 1.0 -1 10
- 0.06512 2 1 ping 64 ------- 3 4.0 1.0 -1 10
- 0.06512 2 3 ping 64 ------- 2 1.0 4.0 -1 13
- 0.06512 3 2 ping 64 ------- 4 5.0 1.0 -1 15
r 0.06768 3 4 ping 64 ------- 1 0.0 4.0 -1 4
+ 0.06768 4 3 ping 64 ------- 3 4.0 1.0 -1 24
- 0.06768 4 3 ping 64 ------- 3 4.0 1.0 -1 24
r 0.06768 2 1 ping 64 ------- 3 4.0 1.0 -1 6
+ 0.06768 1 2 ping 64 ------- 2 1.0 4.0 -1 25
- 0.06768 1 2 ping 64 ------- 2 1.0 4.0 -1 25
r 0.06768 2 3 ping 64 ------- 2 1.0 4.0 -1 9
+ 0.06768 3 4 ping 64 ------- 2 1.0 4.0 -1 9
r 0.06768 3 2 ping 64 ------- 4 5.0 1.0 -1 11
+ 0.06768 2 1 ping 64 ------- 4 5.0 1.0 -1 11
- 0.06768 3 4 ping 64 ------- 2 1.0 4.0 -1 9
- 0.06768 2 1 ping 64 ------- 4 5.0 1.0 -1 11
+ 0.07 0 2 ping 64 ------- 1 0.0 4.0 -1 26
- 0.07 0 2 ping 64 ------- 1 0.0 4.0 -1 26
+ 0.07 1 2 ping 64 ------- 2 1.0 4.0 -1 27
+ 0.07 4 3 ping 64 ------- 3 4.0 1.0 -1 28
+ 0.07 5 3 ping 64 ------- 4 5.0 1.0 -1 29
- 0.07 5 3 ping 64 ------- 4 5.0 1.0 -1 29
r 0.07024 4 3 ping 64 ------- 3 4.0 1.0 -1 16
+ 0.07024 3 2 ping 64 ------- 3 4.0 1.0 -1 16
- 0.07024 3 2 ping 64 ------- 3 4.0 1.0 -1 16
r 0.07024 1 2 ping 64 ------- 2 1.0 4.0 -1 17
+ 0.07024 2 3 ping 64 ------- 2 1.0 4.0 -1 17
- 0.07024 2 3 ping 64 ------- 2 1.0 4.0 -1 17
r 0.07024 3 4 ping 64 ------- 2 1.0 4.0 -1 5
+ 0.07024 4 3 ping 64 ------- 3 4.0 1.0 -1 30
r 0.07024 2 1 ping 64 ------- 4 5.0 1.0 -1 7
+ 0.07024 1 2 ping 64 ------- 2 1.0 4.0 -1 31
- 0.07024 4 3 ping 64 ------- 3 4.0 1.0 -1 28
- 0.07024 1 2 ping 64 ------- 2 1.0 4.0 -1 27
r 0.07256 0 2 ping 64 ------- 1 0.0 4.0 -1 18
+ 0.07256 2 3 ping 64 ------- 1 0.0 4.0 -1 18
r 0.07256 5 3 ping 64 ------- 4 5.0 1.0 -1 21
+ 0.07256 3 2 ping 64 ------- 4 5.0 1.0 -1 21
r 0.0728 4 3 ping 64 ------- 3 4.0 1.0 -1 20
+ 0.0728 3 2 ping 64 ------- 3 4.0 1.0 -1 20
r 0.0728 1 2 ping 64 ------- 2 1.0 4.0 -1 19
+ 0.0728 2 3 ping 64 ------- 2 1.0 4.0 -1 19
- 0.0728 3 2 ping 64 ------- 4 5.0 1.0 -1 21
- 0.0728 2 3 ping 64 ------- 1 0.0 4.0 -1 18
- 0.0728 4 3 ping 64 ------- 3 4.0 1.0 -1 30
- 0.0728 1 2 ping 64 ------- 2 1.0 4.0 -1 31
r 0.07512 2 3 ping 64 ------- 1 0.0 4.0 -1 12
+ 0.07512 3 4 ping 64 ------- 1 0.0 4.0 -1 12
- 0.07512 3 4 ping 64 ------- 1 0.0 4.0 -1 12
r 0.07512 3 2 ping 64 ------- 3 4.0 1.0 -1 14
+ 0.07512 2 1 ping 64 ------- 3 4.0 1.0 -1 14
- 0.07512 2 1 ping 64 ------- 3 4.0 1.0 -1 14
r 0.07536 4 3 ping 64 ------- 3 4.0 1.0 -1 22
+ 0.07536 3 2 ping 64 ------- 3 4.0 1.0 -1 22
r 0.07536 1 2 ping 64 ------- 2 1.0 4.0 -1 23
+ 0.07536 2 3 ping 64 ------- 2 1.0 4.0 -1 23
- 0.07536 3 2 ping 64 ------- 3 4.0 1.0 -1 20
- 0.07536 2 3 ping 64 ------- 2 1.0 4.0 -1 19
r 0.07768 3 4 ping 64 ------- 1 0.0 4.0 -1 8
+ 0.07768 4 3 ping 64 ------- 3 4.0 1.0 -1 32
- 0.07768 4 3 ping 64 ------- 3 4.0 1.0 -1 32
r 0.07768 2 1 ping 64 ------- 3 4.0 1.0 -1 10
+ 0.07768 1 2 ping 64 ------- 2 1.0 4.0 -1 33
- 0.07768 1 2 ping 64 ------- 2 1.0 4.0 -1 33
r 0.07768 2 3 ping 64 ------- 2 1.0 4.0 -1 13
+ 0.07768 3 4 ping 64 ------- 2 1.0 4.0 -1 13
r 0.07768 3 2 ping 64 ------- 4 5.0 1.0 -1 15
+ 0.07768 2 1 ping 64 ------- 4 5.0 1.0 -1 15
- 0.07768 3 4 ping 64 ------- 2 1.0 4.0 -1 13
- 0.07768 2 1 ping 64 ------- 4 5.0 1.0 -1 15
- 0.07792 3 2 ping 64 ------- 3 4.0 1.0 -1 22
- 0.07792 2 3 ping 64 ------- 2 1.0 4.0 -1 23
+ 0.08 0 2 ping 64 ------- 1 0.0 4.0 -1 34
- 0.08 0 2 ping 64 ------- 1 0.0 4.0 -1 34
+ 0.08 1 2 ping 64 ------- 2 1.0 4.0 -1 35
+ 0.08 4 3 ping 64 ------- 3 4.0 1.0 -1 36
+ 0.08 5 3 ping 64 ------- 4 5.0 1.0 -1 37
- 0.08 5 3 ping 64 ------- 4 5.0 1.0 -1 37
r 0.08024 4 3 ping 64 ------- 3 4.0 1.0 -1 24
+ 0.08024 3 2 ping 64 ------- 3 4.0 1.0 -1 24
r 0.08024 1 2 ping 64 ------- 2 1.0 4.0 -1 25
+ 0.08024 2 3 ping 64 ------- 2 1.0 4.0 -1 25
r 0.08024 3 4 ping 64 ------- 2 1.0 4.0 -1 9
+ 0.08024 4 3 ping 64 ------- 3 4.0 1.0 -1 38
r 0.08024 2 1 ping 64 ------- 4 5.0 1.0 -1 11
+ 0.08024 1 2 ping 64 ------- 2 1.0 4.0 -1 39
- 0.08024 4 3 ping 64 ------- 3 4.0 1.0 -1 36
- 0.08024 1 2 ping 64 ------- 2 1.0 4.0 -1 35
- 0.08048 3 2 ping 64 ------- 3 4.0 1.0 -1 24
- 0.08048 2 3 ping 64 ------- 2 1.0 4.0 -1 25
r 0.08256 0 2 ping 64 ------- 1 0.0 4.0 -1 26
+ 0.08256 2 3 ping 64 ------- 1 0.0 4.0 -1 26
r 0.08256 5 3 ping 64 ------- 4 5.0 1.0 -1 29
+ 0.08256 3 2 ping 64 ------- 4 5.0 1.0 -1 29
r 0.0828 3 2 ping 64 ------- 3 4.0 1.0 -1 16
+ 0.0828 2 1 ping 64 ------- 3 4.0 1.0 -1 16
- 0.0828 2 1 ping 64 ------- 3 4.0 1.0 -1 16
r 0.0828 2 3 ping 64 ------- 2 1.0 4.0 -1 17
+ 0.0828 3 4 ping 64 ------- 2 1.0 4.0 -1 17
- 0.0828 3 4 ping 64 ------- 2 1.0 4.0 -1 17
r 0.0828 4 3 ping 64 ------- 3 4.0 1.0 -1 28
+ 0.0828 3 2 ping 64 ------- 3 4.0 1.0 -1 28
r 0.0828 1 2 ping 64 ------- 2 1.0 4.0 -1 27
+ 0.0828 2 3 ping 64 ------- 2 1.0 4.0 -1 27
- 0.0828 4 3 ping 64 ------- 3 4.0 1.0 -1 38
- 0.0828 1 2 ping 64 ------- 2 1.0 4.0 -1 39
- 0.08304 3 2 ping 64 ------- 4 5.0 1.0 -1 29
- 0.08304 2 3 ping 64 ------- 1 0.0 4.0 -1 26
r 0.08536 3 2 ping 64 ------- 4 5.0 1.0 -1 21
+ 0.08536 2 1 ping 64 ------- 4 5.0 1.0 -1 21
r 0.08536 2 3 ping 64 ------- 1 0.0 4.0 -1 18
+ 0.08536 3 4 ping 64 ------- 1 0.0 4.0 -1 18
- 0.08536 2 1 ping 64 ------- 4 5.0 1.0 -1 21
- 0.08536 3 4 ping 64 ------- 1 0.0 4.0 -1 18
r 0.08536 4 3 ping 64 ------- 3 4.0 1.0 -1 30
+ 0.08536 3 2 ping 64 ------- 3 4.0 1.0 -1 30
r 0.08536 1 2 ping 64 ------- 2 1.0 4.0 -1 31
+ 0.08536 2 3 ping 64 ------- 2 1.0 4.0 -1 31
- 0.0856 3 2 ping 64 ------- 3 4.0 1.0 -1 28
- 0.0856 2 3 ping 64 ------- 2 1.0 4.0 -1 27
r 0.08768 3 4 ping 64 ------- 1 0.0 4.0 -1 12
+ 0.08768 4 3 ping 64 ------- 3 4.0 1.0 -1 40
- 0.08768 4 3 ping 64 ------- 3 4.0 1.0 -1 40
r 0.08768 2 1 ping 64 ------- 3 4.0 1.0 -1 14
+ 0.08768 1 2 ping 64 ------- 2 1.0 4.0 -1 41
- 0.08768 1 2 ping 64 ------- 2 1.0 4.0 -1 41
r 0.08792 3 2 ping 64 ------- 3 4.0 1.0 -1 20
+ 0.08792 2 1 ping 64 ------- 3 4.0 1.0 -1 20
r 0.08792 2 3 ping 64 ------- 2 1.0 4.0 -1 19
+ 0.08792 3 4 ping 64 ------- 2 1.0 4.0 -1 19
- 0.08792 2 1 ping 64 ------- 3 4.0 1.0 -1 20
- 0.08792 3 4 ping 64 ------- 2 1.0 4.0 -1 19
- 0.08816 3 2 ping 64 ------- 3 4.0 1.0 -1 30
- 0.08816 2 3 ping 64 ------- 2 1.0 4.0 -1 31
+ 0.09 0 2 ping 64 ------- 1 0.0 4.0 -1 42
- 0.09 0 2 ping 64 ------- 1 0.0 4.0 -1 42
+ 0.09 1 2 ping 64 ------- 2 1.0 4.0 -1 43
+ 0.09 4 3 ping 64 ------- 3 4.0 1.0 -1 44
+ 0.09 5 3 ping 64 ------- 4 5.0 1.0 -1 45
- 0.09 5 3 ping 64 ------- 4 5.0 1.0 -1 45
r 0.09024 4 3 ping 64 ------- 3 4.0 1.0 -1 32
+ 0.09024 3 2 ping 64 ------- 3 4.0 1.0 -1 32
r 0.09024 1 2 ping 64 ------- 2 1.0 4.0 -1 33
+ 0.09024 2 3 ping 64 ------- 2 1.0 4.0 -1 33
r 0.09024 3 4 ping 64 ------- 2 1.0 4.0 -1 13
+ 0.09024 4 3 ping 64 ------- 3 4.0 1.0 -1 46
r 0.09024 2 1 ping 64 ------- 4 5.0 1.0 -1 15
+ 0.09024 1 2 ping 64 ------- 2 1.0 4.0 -1 47
- 0.09024 4 3 ping 64 ------- 3 4.0 1.0 -1 44
- 0.09024 1 2 ping 64 ------- 2 1.0 4.0 -1 43
r 0.09048 3 2 ping 64 ------- 3 4.0 1.0 -1 22
+ 0.09048 2 1 ping 64 ------- 3 4.0 1.0 -1 22
r 0.09048 2 3 ping 64 ------- 2 1.0 4.0 -1 23
+ 0.09048 3 4 ping 64 ------- 2 1.0 4.0 -1 23
- 0.09048 2 1 ping 64 ------- 3 4.0 1.0 -1 22
- 0.09048 3 4 ping 64 ------- 2 1.0 4.0 -1 23
- 0.09072 3 2 ping 64 ------- 3 4.0 1.0 -1 32
- 0.09072 2 3 ping 64 ------- 2 1.0 4.0 -1 33
r 0.09256 0 2 ping 64 ------- 1 0.0 4.0 -1 34
+ 0.09256 2 3 ping 64 ------- 1 0.0 4.0 -1 34
r 0.09256 5 3 ping 64 ------- 4 5.0 1.0 -1 37
+ 0.09256 3 2 ping 64 ------- 4 5.0 1.0 -1 37
r 0.0928 4 3 ping 64 ------- 3 4.0 1.0 -1 36
+ 0.0928 3 2 ping 64 ------- 3 4.0 1.0 -1 36
r 0.0928 1 2 ping 64 ------- 2 1.0 4.0 -1 35
+ 0.0928 2 3 ping 64 ------- 2 1.0 4.0 -1 35
- 0.0928 4 3 ping 64 ------- 3 4.0 1.0 -1 46
- 0.0928 1 2 ping 64 ------- 2 1.0 4.0 -1 47
r 0.09304 3 2 ping 64 ------- 3 4.0 1.0 -1 24
+ 0.09304 2 1 ping 64 ------- 3 4.0 1.0 -1 24
r 0.09304 2 3 ping 64 ------- 2 1.0 4.0 -1 25
+ 0.09304 3 4 ping 64 ------- 2 1.0 4.0 -1 25
- 0.09304 2 1 ping 64 ------- 3 4.0 1.0 -1 24
- 0.09304 3 4 ping 64 ------- 2 1.0 4.0 -1 25
- 0.09328 3 2 ping 64 ------- 4 5.0 1.0 -1 37
- 0.09328 2 3 ping 64 ------- 1 0.0 4.0 -1 34
r 0.09536 2 1 ping 64 ------- 3 4.0 1.0 -1 16
r 0.09536 3 4 ping 64 ------- 2 1.0 4.0 -1 17
r 0.09536 4 3 ping 64 ------- 3 4.0 1.0 -1 38
+ 0.09536 3 2 ping 64 ------- 3 4.0 1.0 -1 38
r 0.09536 1 2 ping 64 ------- 2 1.0 4.0 -1 39
+ 0.09536 2 3 ping 64 ------- 2 1.0 4.0 -1 39
r 0.0956 3 2 ping 64 ------- 4 5.0 1.0 -1 29
+ 0.0956 2 1 ping 64 ------- 4 5.0 1.0 -1 29
r 0.0956 2 3 ping 64 ------- 1 0.0 4.0 -1 26
+ 0.0956 3 4 ping 64 ------- 1 0.0 4.0 -1 26
- 0.0956 2 1 ping 64 ------- 4 5.0 1.0 -1 29
- 0.0956 3 4 ping 64 ------- 1 0.0 4.0 -1 26
- 0.09584 3 2 ping 64 ------- 3 4.0 1.0 -1 36
- 0.09584 2 3 ping 64 ------- 2 1.0 4.0 -1 35
r 0.09792 2 1 ping 64 ------- 4 5.0 1.0 -1 21
+ 0.09792 1 2 ping 64 ------- 2 1.0 4.0 -1 48
- 0.09792 1 2 ping 64 ------- 2 1.0 4.0 -1 48
r 0.09792 3 4 ping 64 ------- 1 0.0 4.0 -1 18
+ 0.09792 4 3 ping 64 ------- 3 4.0 1.0 -1 49
- 0.09792 4 3 ping 64 ------- 3 4.0 1.0 -1 49
r 0.09816 3 2 ping 64 ------- 3 4.0 1.0 -1 28
+ 0.09816 2 1 ping 64 ------- 3 4.0 1.0 -1 28
r 0.09816 2 3 ping 64 ------- 2 1.0 4.0 -1 27
+ 0.09816 3 4 ping 64 ------- 2 1.0 4.0 -1 27
- 0.09816 2 1 ping 64 ------- 3 4.0 1.0 -1 28
- 0.09816 3 4 ping 64 ------- 2 1.0 4.0 -1 27
- 0.0984 3 2 ping 64 ------- 3 4.0 1.0 -1 38
- 0.0984 2 3 ping 64 ------- 2 1.0 4.0 -1 39
+ 0.1 0 2 ping 64 ------- 1 0.0 4.0 -1 50
- 0.1 0 2 ping 64 ------- 1 0.0 4.0 -1 50
+ 0.1 1 2 ping 64 ------- 2 1.0 4.0 -1 51
+ 0.1 4 3 ping 64 ------- 3 4.0 1.0 -1 52
+ 0.1 5 3 ping 64 ------- 4 5.0 1.0 -1 53
- 0.1 5 3 ping 64 ------- 4 5.0 1.0 -1 53
r 0.10024 4 3 ping 64 ------- 3 4.0 1.0 -1 40
+ 0.10024 3 2 ping 64 ------- 3 4.0 1.0 -1 40
r 0.10024 1 2 ping 64 ------- 2 1.0 4.0 -1 41
+ 0.10024 2 3 ping 64 ------- 2 1.0 4.0 -1 41
r 0.10048 2 1 ping 64 ------- 3 4.0 1.0 -1 20
+ 0.10048 1 2 ping 64 ------- 2 1.0 4.0 -1 54
r 0.10048 3 4 ping 64 ------- 2 1.0 4.0 -1 19
+ 0.10048 4 3 ping 64 ------- 3 4.0 1.0 -1 55
- 0.10048 1 2 ping 64 ------- 2 1.0 4.0 -1 51
- 0.10048 4 3 ping 64 ------- 3 4.0 1.0 -1 52
r 0.10072 3 2 ping 64 ------- 3 4.0 1.0 -1 30
+ 0.10072 2 1 ping 64 ------- 3 4.0 1.0 -1 30
r 0.10072 2 3 ping 64 ------- 2 1.0 4.0 -1 31
+ 0.10072 3 4 ping 64 ------- 2 1.0 4.0 -1 31
- 0.10072 2 1 ping 64 ------- 3 4.0 1.0 -1 30
- 0.10072 3 4 ping 64 ------- 2 1.0 4.0 -1 31
- 0.10096 3 2 ping 64 ------- 3 4.0 1.0 -1 40
- 0.10096 2 3 ping 64 ------- 2 1.0 4.0 -1 41
r 0.10256 0 2 ping 64 ------- 1 0.0 4.0 -1 42
+ 0.10256 2 3 ping 64 ------- 1 0.0 4.0 -1 42
r 0.10256 5 3 ping 64 ------- 4 5.0 1.0 -1 45
+ 0.10256 3 2 ping 64 ------- 4 5.0 1.0 -1 45
r 0.1028 4 3 ping 64 ------- 3 4.0 1.0 -1 44
+ 0.1028 3 2 ping 64 ------- 3 4.0 1.0 -1 44
r 0.1028 1 2 ping 64 ------- 2 1.0 4.0 -1 43
+ 0.1028 2 3 ping 64 ------- 2 1.0 4.0 -1 43
r 0.10304 2 1 ping 64 ------- 3 4.0 1.0 -1 22
r 0.10304 3 4 ping 64 ------- 2 1.0 4.0 -1 23
- 0.10304 1 2 ping 64 ------- 2 1.0 4.0 -1 54
- 0.10304 4 3 ping 64 ------- 3 4.0 1.0 -1 55
r 0.10328 3 2 ping 64 ------- 3 4.0 1.0 -1 32
+ 0.10328 2 1 ping 64 ------- 3 4.0 1.0 -1 32
r 0.10328 2 3 ping 64 ------- 2 1.0 4.0 -1 33
+ 0.10328 3 4 ping 64 ------- 2 1.0 4.0 -1 33
- 0.10328 2 1 ping 64 ------- 3 4.0 1.0 -1 32
- 0.10328 3 4 ping 64 ------- 2 1.0 4.0 -1 33
- 0.10352 3 2 ping 64 ------- 4 5.0 1.0 -1 45
- 0.10352 2 3 ping 64 ------- 1 0.0 4.0 -1 42
r 0.10536 4 3 ping 64 ------- 3 4.0 1.0 -1 46
+ 0.10536 3 2 ping 64 ------- 3 4.0 1.0 -1 46
r 0.10536 1 2 ping 64 ------- 2 1.0 4.0 -1 47
+ 0.10536 2 3 ping 64 ------- 2 1.0 4.0 -1 47
r 0.1056 2 1 ping 64 ------- 3 4.0 1.0 -1 24
r 0.1056 3 4 ping 64 ------- 2 1.0 4.0 -1 25
r 0.10584 3 2 ping 64 ------- 4 5.0 1.0 -1 37
+ 0.10584 2 1 ping 64 ------- 4 5.0 1.0 -1 37
r 0.10584 2 3 ping 64 ------- 1 0.0 4.0 -1 34
+ 0.10584 3 4 ping 64 ------- 1 0.0 4.0 -1 34
- 0.10584 2 1 ping 64 ------- 4 5.0 1.0 -1 37
- 0.10584 3 4 ping 64 ------- 1 0.0 4.0 -1 34
- 0.10608 3 2 ping 64 ------- 3 4.0 1.0 -1 44
- 0.10608 2 3 ping 64 ------- 2 1.0 4.0 -1 43
r 0.10816 2 1 ping 64 ------- 4 5.0 1.0 -1 29
+ 0.10816 1 2 ping 64 ------- 2 1.0 4.0 -1 56
- 0.10816 1 2 ping 64 ------- 2 1.0 4.0 -1 56
r 0.10816 3 4 ping 64 ------- 1 0.0 4.0 -1 26
+ 0.10816 4 3 ping 64 ------- 3 4.0 1.0 -1 57
- 0.10816 4 3 ping 64 ------- 3 4.0 1.0 -1 57
r 0.1084 3 2 ping 64 ------- 3 4.0 1.0 -1 36
+ 0.1084 2 1 ping 64 ------- 3 4.0 1.0 -1 36
r 0.1084 2 3 ping 64 ------- 2 1.0 4.0 -1 35
+ 0.1084 3 4 ping 64 ------- 2 1.0 4.0 -1 35
- 0.1084 2 1 ping 64 ------- 3 4.0 1.0 -1 36
- 0.1084 3 4 ping 64 ------- 2 1.0 4.0 -1 35
- 0.10864 3 2 ping 64 ------- 3 4.0 1.0 -1 46
- 0.10864 2 3 ping 64 ------- 2 1.0 4.0 -1 47
+ 0.11 0 2 ping 64 ------- 1 0.0 4.0 -1 58
- 0.11 0 2 ping 64 ------- 1 0.0 4.0 -1 58
+ 0.11 1 2 ping 64 ------- 2 1.0 4.0 -1 59
+ 0.11 4 3 ping 64 ------- 3 4.0 1.0 -1 60
+ 0.11 5 3 ping 64 ------- 4 5.0 1.0 -1 61
- 0.11 5 3 ping 64 ------- 4 5.0 1.0 -1 61
r 0.11048 1 2 ping 64 ------- 2 1.0 4.0 -1 48
+ 0.11048 2 3 ping 64 ------- 2 1.0 4.0 -1 48
r 0.11048 4 3 ping 64 ------- 3 4.0 1.0 -1 49
+ 0.11048 3 2 ping 64 ------- 3 4.0 1.0 -1 49
r 0.11072 2 1 ping 64 ------- 3 4.0 1.0 -1 28
+ 0.11072 1 2 ping 64 ------- 2 1.0 4.0 -1 62
r 0.11072 3 4 ping 64 ------- 2 1.0 4.0 -1 27
+ 0.11072 4 3 ping 64 ------- 3 4.0 1.0 -1 63
- 0.11072 1 2 ping 64 ------- 2 1.0 4.0 -1 59
- 0.11072 4 3 ping 64 ------- 3 4.0 1.0 -1 60
r 0.11096 3 2 ping 64 ------- 3 4.0 1.0 -1 38
+ 0.11096 2 1 ping 64 ------- 3 4.0 1.0 -1 38
r 0.11096 2 3 ping 64 ------- 2 1.0 4.0 -1 39
+ 0.11096 3 4 ping 64 ------- 2 1.0 4.0 -1 39
- 0.11096 2 1 ping 64 ------- 3 4.0 1.0 -1 38
- 0.11096 3 4 ping 64 ------- 2 1.0 4.0 -1 39
- 0.1112 3 2 ping 64 ------- 3 4.0 1.0 -1 49
- 0.1112 2 3 ping 64 ------- 2 1.0 4.0 -1 48
r 0.11256 0 2 ping 64 ------- 1 0.0 4.0 -1 50
+ 0.11256 2 3 ping 64 ------- 1 0.0 4.0 -1 50
r 0.11256 5 3 ping 64 ------- 4 5.0 1.0 -1 53
+ 0.11256 3 2 ping 64 ------- 4 5.0 1.0 -1 53
r 0.11304 1 2 ping 64 ------- 2 1.0 4.0 -1 51
+ 0.11304 2 3 ping 64 ------- 2 1.0 4.0 -1 51
r 0.11304 4 3 ping 64 ------- 3 4.0 1.0 -1 52
+ 0.11304 3 2 ping 64 ------- 3 4.0 1.0 -1 52
r 0.11328 2 1 ping 64 ------- 3 4.0 1.0 -1 30
r 0.11328 3 4 ping 64 ------- 2 1.0 4.0 -1 31
- 0.11328 1 2 ping 64 ------- 2 1.0 4.0 -1 62
- 0.11328 4 3 ping 64 ------- 3 4.0 1.0 -1 63
r 0.11352 3 2 ping 64 ------- 3 4.0 1.0 -1 40
+ 0.11352 2 1 ping 64 ------- 3 4.0 1.0 -1 40
r 0.11352 2 3 ping 64 ------- 2 1.0 4.0 -1 41
+ 0.11352 3 4 ping 64 ------- 2 1.0 4.0 -1 41
- 0.11352 2 1 ping 64 ------- 3 4.0 1.0 -1 40
- 0.11352 3 4 ping 64 ------- 2 1.0 4.0 -1 41
- 0.11376 3 2 ping 64 ------- 4 5.0 1.0 -1 53
- 0.11376 2 3 ping 64 ------- 1 0.0 4.0 -1 50
r 0.1156 1 2 ping 64 ------- 2 1.0 4.0 -1 54
+ 0.1156 2 3 ping 64 ------- 2 1.0 4.0 -1 54
r 0.1156 4 3 ping 64 ------- 3 4.0 1.0 -1 55
+ 0.1156 3 2 ping 64 ------- 3 4.0 1.0 -1 55
r 0.11584 2 1 ping 64 ------- 3 4.0 1.0 -1 32
r 0.11584 3 4 ping 64 ------- 2 1.0 4.0 -1 33
r 0.11608 3 2 ping 64 ------- 4 5.0 1.0 -1 45
+ 0.11608 2 1 ping 64 ------- 4 5.0 1.0 -1 45
r 0.11608 2 3 ping 64 ------- 1 0.0 4.0 -1 42
+ 0.11608 3 4 ping 64 ------- 1 0.0 4.0 -1 42
- 0.11608 2 1 ping 64 ------- 4 5.0 1.0 -1 45
- 0.11608 3 4 ping 64 ------- 1 0.0 4.0 -1 42
- 0.11632 3 2 ping 64 ------- 3 4.0 1.0 -1 52
- 0.11632 2 3 ping 64 ------- 2 1.0 4.0 -1 51
r 0.1184 2 1 ping 64 ------- 4 5.0 1.0 -1 37
+ 0.1184 1 2 ping 64 ------- 2 1.0 4.0 -1 64
- 0.1184 1 2 ping 64 ------- 2 1.0 4.0 -1 64
r 0.1184 3 4 ping 64 ------- 1 0.0 4.0 -1 34
+ 0.1184 4 3 ping 64 ------- 3 4.0 1.0 -1 65
- 0.1184 4 3 ping 64 ------- 3 4.0 1.0 -1 65
r 0.11864 3 2 ping 64 ------- 3 4.0 1.0 -1 44
+ 0.11864 2 1 ping 64 ------- 3 4.0 1.0 -1 44
r 0.11864 2 3 ping 64 ------- 2 1.0 4.0 -1 43
+ 0.11864 3 4 ping 64 ------- 2 1.0 4.0 -1 43
- 0.11864 2 1 ping 64 ------- 3 4.0 1.0 -1 44
- 0.11864 3 4 ping 64 ------- 2 1.0 4.0 -1 43
- 0.11888 3 2 ping 64 ------- 3 4.0 1.0 -1 55
- 0.11888 2 3 ping 64 ------- 2 1.0 4.0 -1 54
+ 0.12 0 2 ping 64 ------- 1 0.0 4.0 -1 66
- 0.12 0 2 ping 64 ------- 1 0.0 4.0 -1 66
+ 0.12 1 2 ping 64 ------- 2 1.0 4.0 -1 67
+ 0.12 4 3 ping 64 ------- 3 4.0 1.0 -1 68
+ 0.12 5 3 ping 64 ------- 4 5.0 1.0 -1 69
- 0.12 5 3 ping 64 ------- 4 5.0 1.0 -1 69
r 0.12072 1 2 ping 64 ------- 2 1.0 4.0 -1 56
+ 0.12072 2 3 ping 64 ------- 2 1.0 4.0 -1 56
r 0.12072 4 3 ping 64 ------- 3 4.0 1.0 -1 57
+ 0.12072 3 2 ping 64 ------- 3 4.0 1.0 -1 57
r 0.12096 2 1 ping 64 ------- 3 4.0 1.0 -1 36
+ 0.12096 1 2 ping 64 ------- 2 1.0 4.0 -1 70
r 0.12096 3 4 ping 64 ------- 2 1.0 4.0 -1 35
+ 0.12096 4 3 ping 64 ------- 3 4.0 1.0 -1 71
- 0.12096 1 2 ping 64 ------- 2 1.0 4.0 -1 67
- 0.12096 4 3 ping 64 ------- 3 4.0 1.0 -1 68
r 0.1212 3 2 ping 64 ------- 3 4.0 1.0 -1 46
+ 0.1212 2 1 ping 64 ------- 3 4.0 1.0 -1 46
r 0.1212 2 3 ping 64 ------- 2 1.0 4.0 -1 47
+ 0.1212 3 4 ping 64 ------- 2 1.0 4.0 -1 47
- 0.1212 2 1 ping 64 ------- 3 4.0 1.0 -1 46
- 0.1212 3 4 ping 64 ------- 2 1.0 4.0 -1 47
- 0.12144 3 2 ping 64 ------- 3 4.0 1.0 -1 57
- 0.12144 2 3 ping 64 ------- 2 1.0 4.0 -1 56
r 0.12256 0 2 ping 64 ------- 1 0.0 4.0 -1 58
+ 0.12256 2 3 ping 64 ------- 1 0.0 4.0 -1 58
r 0.12256 5 3 ping 64 ------- 4 5.0 1.0 -1 61
+ 0.12256 3 2 ping 64 ------- 4 5.0 1.0 -1 61
r 0.12328 1 2 ping 64 ------- 2 1.0 4.0 -1 59
+ 0.12328 2 3 ping 64 ------- 2 1.0 4.0 -1 59
r 0.12328 4 3 ping 64 ------- 3 4.0 1.0 -1 60
+ 0.12328 3 2 ping 64 ------- 3 4.0 1.0 -1 60
r 0.12352 2 1 ping 64 ------- 3 4.0 1.0 -1 38
r 0.12352 3 4 ping 64 ------- 2 1.0 4.0 -1 39
- 0.12352 1 2 ping 64 ------- 2 1.0 4.0 -1 70
- 0.12352 4 3 ping 64 ------- 3 4.0 1.0 -1 71
r 0.12376 3 2 ping 64 ------- 3 4.0 1.0 -1 49
+ 0.12376 2 1 ping 64 ------- 3 4.0 1.0 -1 49
r 0.12376 2 3 ping 64 ------- 2 1.0 4.0 -1 48
+ 0.12376 3 4 ping 64 ------- 2 1.0 4.0 -1 48
- 0.12376 2 1 ping 64 ------- 3 4.0 1.0 -1 49
- 0.12376 3 4 ping 64 ------- 2 1.0 4.0 -1 48
- 0.124 3 2 ping 64 ------- 4 5.0 1.0 -1 61
- 0.124 2 3 ping 64 ------- 1 0.0 4.0 -1 58
r 0.12584 1 2 ping 64 ------- 2 1.0 4.0 -1 62
+ 0.12584 2 3 ping 64 ------- 2 1.0 4.0 -1 62
r 0.12584 4 3 ping 64 ------- 3 4.0 1.0 -1 63
+ 0.12584 3 2 ping 64 ------- 3 4.0 1.0 -1 63
r 0.12608 2 1 ping 64 ------- 3 4.0 1.0 -1 40
r 0.12608 3 4 ping 64 ------- 2 1.0 4.0 -1 41
r 0.12632 3 2 ping 64 ------- 4 5.0 1.0 -1 53
+ 0.12632 2 1 ping 64 ------- 4 5.0 1.0 -1 53
r 0.12632 2 3 ping 64 ------- 1 0.0 4.0 -1 50
+ 0.12632 3 4 ping 64 ------- 1 0.0 4.0 -1 50
- 0.12632 2 1 ping 64 ------- 4 5.0 1.0 -1 53
- 0.12632 3 4 ping 64 ------- 1 0.0 4.0 -1 50
- 0.12656 3 2 ping 64 ------- 3 4.0 1.0 -1 60
- 0.12656 2 3 ping 64 ------- 2 1.0 4.0 -1 59
r 0.12864 2 1 ping 64 ------- 4 5.0 1.0 -1 45
+ 0.12864 1 2 ping 64 ------- 2 1.0 4.0 -1 72
- 0.12864 1 2 ping 64 ------- 2 1.0 4.0 -1 72
r 0.12864 3 4 ping 64 ------- 1 0.0 4.0 -1 42
+ 0.12864 4 3 ping 64 ------- 3 4.0 1.0 -1 73
- 0.12864 4 3 ping 64 ------- 3 4.0 1.0 -1 73
r 0.12888 3 2 ping 64 ------- 3 4.0 1.0 -1 52
+ 0.12888 2 1 ping 64 ------- 3 4.0 1.0 -1 52
r 0.12888 2 3 ping 64 ------- 2 1.0 4.0 -1 51
+ 0.12888 3 4 ping 64 ------- 2 1.0 4.0 -1 51
- 0.12888 2 1 ping 64 ------- 3 4.0 1.0 -1 52
- 0.12888 3 4 ping 64 ------- 2 1.0 4.0 -1 51
- 0.12912 3 2 ping 64 ------- 3 4.0 1.0 -1 63
- 0.12912 2 3 ping 64 ------- 2 1.0 4.0 -1 62
+ 0.13 0 2 ping 64 ------- 1 0.0 4.0 -1 74
- 0.13 0 2 ping 64 ------- 1 0.0 4.0 -1 74
+ 0.13 1 2 ping 64 ------- 2 1.0 4.0 -1 75
+ 0.13 4 3 ping 64 ------- 3 4.0 1.0 -1 76
+ 0.13 5 3 ping 64 ------- 4 5.0 1.0 -1 77
- 0.13 5 3 ping 64 ------- 4 5.0 1.0 -1 77
r 0.13096 1 2 ping 64 ------- 2 1.0 4.0 -1 64
+ 0.13096 2 3 ping 64 ------- 2 1.0 4.0 -1 64
r 0.13096 4 3 ping 64 ------- 3 4.0 1.0 -1 65
+ 0.13096 3 2 ping 64 ------- 3 4.0 1.0 -1 65
r 0.1312 2 1 ping 64 ------- 3 4.0 1.0 -1 44
+ 0.1312 1 2 ping 64 ------- 2 1.0 4.0 -1 78
r 0.1312 3 4 ping 64 ------- 2 1.0 4.0 -1 43
+ 0.1312 4 3 ping 64 ------- 3 4.0 1.0 -1 79
- 0.1312 1 2 ping 64 ------- 2 1.0 4.0 -1 75
- 0.1312 4 3 ping 64 ------- 3 4.0 1.0 -1 76
r 0.13144 3 2 ping 64 ------- 3 4.0 1.0 -1 55
+ 0.13144 2 1 ping 64 ------- 3 4.0 1.0 -1 55
r 0.13144 2 3 ping 64 ------- 2 1.0 4.0 -1 54
+ 0.13144 3 4 ping 64 ------- 2 1.0 4.0 -1 54
- 0.13144 2 1 ping 64 ------- 3 4.0 1.0 -1 55
- 0.13144 3 4 ping 64 ------- 2 1.0 4.0 -1 54
- 0.13168 3 2 ping 64 ------- 3 4.0 1.0 -1 65
- 0.13168 2 3 ping 64 ------- 2 1.0 4.0 -1 64
r 0.13256 0 2 ping 64 ------- 1 0.0 4.0 -1 66
+ 0.13256 2 3 ping 64 ------- 1 0.0 4.0 -1 66
r 0.13256 5 3 ping 64 ------- 4 5.0 1.0 -1 69
+ 0.13256 3 2 ping 64 ------- 4 5.0 1.0 -1 69
r 0.13352 1 2 ping 64 ------- 2 1.0 4.0 -1 67
+ 0.13352 2 3 ping 64 ------- 2 1.0 4.0 -1 67
r 0.13352 4 3 ping 64 ------- 3 4.0 1.0 -1 68
+ 0.13352 3 2 ping 64 ------- 3 4.0 1.0 -1 68
r 0.13376 2 1 ping 64 ------- 3 4.0 1.0 -1 46
r 0.13376 3 4 ping 64 ------- 2 1.0 4.0 -1 47
- 0.13376 1 2 ping 64 ------- 2 1.0 4.0 -1 78
- 0.13376 4 3 ping 64 ------- 3 4.0 1.0 -1 79
r 0.134 3 2 ping 64 ------- 3 4.0 1.0 -1 57
+ 0.134 2 1 ping 64 ------- 3 4.0 1.0 -1 57
r 0.134 2 3 ping 64 ------- 2 1.0 4.0 -1 56
+ 0.134 3 4 ping 64 ------- 2 1.0 4.0 -1 56
- 0.134 2 1 ping 64 ------- 3 4.0 1.0 -1 57
- 0.134 3 4 ping 64 ------- 2 1.0 4.0 -1 56
- 0.13424 3 2 ping 64 ------- 4 5.0 1.0 -1 69
- 0.13424 2 3 ping 64 ------- 1 0.0 4.0 -1 66
r 0.13608 1 2 ping 64 ------- 2 1.0 4.0 -1 70
+ 0.13608 2 3 ping 64 ------- 2 1.0 4.0 -1 70
r 0.13608 4 3 ping 64 ------- 3 4.0 1.0 -1 71
+ 0.13608 3 2 ping 64 ------- 3 4.0 1.0 -1 71
r 0.13632 2 1 ping 64 ------- 3 4.0 1.0 -1 49
r 0.13632 3 4 ping 64 ------- 2 1.0 4.0 -1 48
r 0.13656 3 2 ping 64 ------- 4 5.0 1.0 -1 61
+ 0.13656 2 1 ping 64 ------- 4 5.0 1.0 -1 61
r 0.13656 2 3 ping 64 ------- 1 0.0 4.0 -1 58
+ 0.13656 3 4 ping 64 ------- 1 0.0 4.0 -1 58
- 0.13656 2 1 ping 64 ------- 4 5.0 1.0 -1 61
- 0.13656 3 4 ping 64 ------- 1 0.0 4.0 -1 58
- 0.1368 3 2 ping 64 ------- 3 4.0 1.0 -1 68
- 0.1368 2 3 ping 64 ------- 2 1.0 4.0 -1 67
r 0.13888 2 1 ping 64 ------- 4 5.0 1.0 -1 53
+ 0.13888 1 2 ping 64 ------- 2 1.0 4.0 -1 80
- 0.13888 1 2 ping 64 ------- 2 1.0 4.0 -1 80
r 0.13888 3 4 ping 64 ------- 1 0.0 4.0 -1 50
+ 0.13888 4 3 ping 64 ------- 3 4.0 1.0 -1 81
- 0.13888 4 3 ping 64 ------- 3 4.0 1.0 -1 81
r 0.13912 3 2 ping 64 ------- 3 4.0 1.0 -1 60
+ 0.13912 2 1 ping 64 ------- 3 4.0 1.0 -1 60
r 0.13912 2 3 ping 64 ------- 2 1.0 4.0 -1 59
+ 0.13912 3 4 ping 64 ------- 2 1.0 4.0 -1 59
- 0.13912 2 1 ping 64 ------- 3 4.0 1.0 -1 60
- 0.13912 3 4 ping 64 ------- 2 1.0 4.0 -1 59
- 0.13936 3 2 ping 64 ------- 3 4.0 1.0 -1 71
- 0.13936 2 3 ping 64 ------- 2 1.0 4.0 -1 70
+ 0.14 0 2 ping 64 ------- 1 0.0 4.0 -1 82
- 0.14 0 2 ping 64 ------- 1 0.0 4.0 -1 82
+ 0.14 1 2 ping 64 ------- 2 1.0 4.0 -1 83
+ 0.14 4 3 ping 64 ------- 3 4.0 1.0 -1 84
+ 0.14 5 3 ping 64 ------- 4 5.0 1.0 -1 85
- 0.14 5 3 ping 64 ------- 4 5.0 1.0 -1 85
r 0.1412 1 2 ping 64 ------- 2 1.0 4.0 -1 72
+ 0.1412 2 3 ping 64 ------- 2 1.0 4.0 -1 72
r 0.1412 4 3 ping 64 ------- 3 4.0 1.0 -1 73
+ 0.1412 3 2 ping 64 ------- 3 4.0 1.0 -1 73
r 0.14144 2 1 ping 64 ------- 3 4.0 1.0 -1 52
+ 0.14144 1 2 ping 64 ------- 2 1.0 4.0 -1 86
r 0.14144 3 4 ping 64 ------- 2 1.0 4.0 -1 51
+ 0.14144 4 3 ping 64 ------- 3 4.0 1.0 -1 87
- 0.14144 1 2 ping 64 ------- 2 1.0 4.0 -1 83
- 0.14144 4 3 ping 64 ------- 3 4.0 1.0 -1 84
r 0.14168 3 2 ping 64 ------- 3 4.0 1.0 -1 63
+ 0.14168 2 1 ping 64 ------- 3 4.0 1.0 -1 63
r 0.14168 2 3 ping 64 ------- 2 1.0 4.0 -1 62
+ 0.14168 3 4 ping 64 ------- 2 1.0 4.0 -1 62
- 0.14168 2 1 ping 64 ------- 3 4.0 1.0 -1 63
- 0.14168 3 4 ping 64 ------- 2 1.0 4.0 -1 62
- 0.14192 3 2 ping 64 ------- 3 4.0 1.0 -1 73
- 0.14192 2 3 ping 64 ------- 2 1.0 4.0 -1 72
r 0.14256 0 2 ping 64 ------- 1 0.0 4.0 -1 74
+ 0.14256 2 3 ping 64 ------- 1 0.0 4.0 -1 74
r 0.14256 5 3 ping 64 ------- 4 5.0 1.0 -1 77
+ 0.14256 3 2 ping 64 ------- 4 5.0 1.0 -1 77
r 0.14376 1 2 ping 64 ------- 2 1.0 4.0 -1 75
+ 0.14376 2 3 ping 64 ------- 2 1.0 4.0 -1 75
r 0.14376 4 3 ping 64 ------- 3 4.0 1.0 -1 76
+ 0.14376 3 2 ping 64 ------- 3 4.0 1.0 -1 76
r 0.144 2 1 ping 64 ------- 3 4.0 1.0 -1 55
r 0.144 3 4 ping 64 ------- 2 1.0 4.0 -1 54
- 0.144 1 2 ping 64 ------- 2 1.0 4.0 -1 86
- 0.144 4 3 ping 64 ------- 3 4.0 1.0 -1 87
r 0.14424 3 2 ping 64 ------- 3 4.0 1.0 -1 65
+ 0.14424 2 1 ping 64 ------- 3 4.0 1.0 -1 65
r 0.14424 2 3 ping 64 ------- 2 1.0 4.0 -1 64
+ 0.14424 3 4 ping 64 ------- 2 1.0 4.0 -1 64
- 0.14424 2 1 ping 64 ------- 3 4.0 1.0 -1 65
- 0.14424 3 4 ping 64 ------- 2 1.0 4.0 -1 64
- 0.14448 3 2 ping 64 ------- 4 5.0 1.0 -1 77
- 0.14448 2 3 ping 64 ------- 1 0.0 4.0 -1 74