+ 0.02 0 2 ping 64 ------- 1 0.0 4.0 -1 0
- 0.02 0 2 ping 64 ------- 1 0.0 4.0 -1 0
+ 0.02 1 2 ping 64 ------- 2 1.0 4.0 -1 1
- 0.02 1 2 ping 64 ------- 2 1.0 4.0 -1 1
+ 0.02 4 3 ping 64 ------- 3 4.0 1.0 -1 2
- 0.02 4 3 ping 64 ------- 3 4.0 1.0 -1 2
+ 0.02 5 3 ping 64 ------- 4 5.0 1.0 -1 3
- 0.02 5 3 ping 64 ------- 4 5.0 1.0 -1 3
+ 0.03 0 2 ping 64 ------- 1 0.0 4.0 -1 4
- 0.03 0 2 ping 64 ------- 1 0.0 4.0 -1 4
+ 0.03 1 2 ping 64 ------- 2 1.0 4.0 -1 5
- 0.03 1 2 ping 64 ------- 2 1.0 4.0 -1 5
+ 0.03 4 3 ping 64 ------- 3 4.0 1.0 -1 6
- 0.03 4 3 ping 64 ------- 3 4.0 1.0 -1 6
+ 0.03 5 3 ping 64 ------- 4 5.0 1.0 -1 7
- 0.03 5 3 ping 64 ------- 4 5.0 1.0 -1 7
r 0.030256 0 2 ping 64 ------- 1 0.0 4.0 -1 0
+ 0.030256 2 3 ping 64 ------- 1 0.0 4.0 -1 0
- 0.030256 2 3 ping 64 ------- 1 0.0 4.0 -1 0
r 0.030256 1 2 ping 64 ------- 2 1.0 4.0 -1 1
+ 0.030256 2 3 ping 64 ------- 2 1.0 4.0 -1 1
r 0.030256 4 3 ping 64 ------- 3 4.0 1.0 -1 2
+ 0.030256 3 2 ping 64 ------- 3 4.0 1.0 -1 2
- 0.030256 3 2 ping 64 ------- 3 4.0 1.0 -1 2
r 0.030256 5 3 ping 64 ------- 4 5.0 1.0 -1 3
+ 0.030256 3 2 ping 64 ------- 4 5.0 1.0 -1 3
- 0.030512 2 3 ping 64 ------- 2 1.0 4.0 -1 1
- 0.030512 3 2 ping 64 ------- 4 5.0 1.0 -1 3
+ 0.04 0 2 ping 64 ------- 1 0.0 4.0 -1 8
- 0.04 0 2 ping 64 ------- 1 0.0 4.0 -1 8
+ 0.04 1 2 ping 64 ------- 2 1.0 4.0 -1 9
- 0.04 1 2 ping 64 ------- 2 1.0 4.0 -1 9
+ 0.04 4 3 ping 64 ------- 3 4.0 1.0 -1 10
- 0.04 4 3 ping 64 ------- 3 4.0 1.0 -1 10
+ 0.04 5 3 ping 64 ------- 4 5.0 1.0 -1 11
- 0.04 5 3 ping 64 ------- 4 5.0 1.0 -1 11
r 0.040256 0 2 ping 64 ------- 1 0.0 4.0 -1 4
+ 0.040256 2 3 ping 64 ------- 1 0.0 4.0 -1 4
- 0.040256 2 3 ping 64 ------- 1 0.0 4.0 -1 4
r 0.040256 1 2 ping 64 ------- 2 1.0 4.0 -1 5
+ 0.040256 2 3 ping 64 ------- 2 1.0 4.0 -1 5
r 0.040256 4 3 ping 64 ------- 3 4.0 1.0 -1 6
+ 0.040256 3 2 ping 64 ------- 3 4.0 1.0 -1 6
- 0.040256 3 2 ping 64 ------- 3 4.0 1.0 -1 6
r 0.040256 5 3 ping 64 ------- 4 5.0 1.0 -1 7
+ 0.040256 3 2 ping 64 ------- 4 5.0 1.0 -1 7
r 0.040512 2 3 ping 64 ------- 1 0.0 4.0 -1 0
+ 0.040512 3 4 ping 64 ------- 1 0.0 4.0 -1 0
- 0.040512 3 4 ping 64 ------- 1 0.0 4.0 -1 0
r 0.040512 3 2 ping 64 ------- 3 4.0 1.0 -1 2
+ 0.040512 2 1 ping 64 ------- 3 4.0 1.0 -1 2
- 0.040512 2 1 ping 64 ------- 3 4.0 1.0 -1 2
- 0.040512 2 3 ping 64 ------- 2 1.0 4.0 -1 5
- 0.040512 3 2 ping 64 ------- 4 5.0 1.0 -1 7
r 0.040768 2 3 ping 64 ------- 2 1.0 4.0 -1 1
+ 0.040768 3 4 ping 64 ------- 2 1.0 4.0 -1 1
r 0.040768 3 2 ping 64 ------- 4 5.0 1.0 -1 3
+ 0.040768 2 1 ping 64 ------- 4 5.0 1.0 -1 3
- 0.040768 3 4 ping 64 ------- 2 1.0 4.0 -1 1
- 0.040768 2 1 ping 64 ------- 4 5.0 1.0 -1 3
+ 0.05 0 2 ping 64 ------- 1 0.0 4.0 -1 12
- 0.05 0 2 ping 64 ------- 1 0.0 4.0 -1 12
+ 0.05 1 2 ping 64 ------- 2 1.0 4.0 -1 13
- 0.05 1 2 ping 64 ------- 2 1.0 4.0 -1 13
+ 0.05 4 3 ping 64 ------- 3 4.0 1.0 -1 14
- 0.05 4 3 ping 64 ------- 3 4.0 1.0 -1 14
+ 0.05 5 3 ping 64 ------- 4 5.0 1.0 -1 15
- 0.05 5 3 ping 64 ------- 4 5.0 1.0 -1 15
r 0.050256 0 2 ping 64 ------- 1 0.0 4.0 -1 8
+ 0.050256 2 3 ping 64 ------- 1 0.0 4.0 -1 8
- 0.050256 2 3 ping 64 ------- 1 0.0 4.0 -1 8
r 0.050256 1 2 ping 64 ------- 2 1.0 4.0 -1 9
+ 0.050256 2 3 ping 64 ------- 2 1.0 4.0 -1 9
r 0.050256 4 3 ping 64 ------- 3 4.0 1.0 -1 10
+ 0.050256 3 2 ping 64 ------- 3 4.0 1.0 -1 10
- 0.050256 3 2 ping 64 ------- 3 4.0 1.0 -1 10
r 0.050256 5 3 ping 64 ------- 4 5.0 1.0 -1 11
+ 0.050256 3 2 ping 64 ------- 4 5.0 1.0 -1 11
r 0.050512 2 3 ping 64 ------- 1 0.0 4.0 -1 4
+ 0.050512 3 4 ping 64 ------- 1 0.0 4.0 -1 4
- 0.050512 3 4 ping 64 ------- 1 0.0 4.0 -1 4
r 0.050512 3 2 ping 64 ------- 3 4.0 1.0 -1 6
+ 0.050512 2 1 ping 64 ------- 3 4.0 1.0 -1 6
- 0.050512 2 1 ping 64 ------- 3 4.0 1.0 -1 6
- 0.050512 2 3 ping 64 ------- 2 1.0 4.0 -1 9
- 0.050512 3 2 ping 64 ------- 4 5.0 1.0 -1 11
r 0.050768 3 4 ping 64 ------- 1 0.0 4.0 -1 0
+ 0.050768 4 3 ping 64 ------- 3 4.0 1.0 -1 16
- 0.050768 4 3 ping 64 ------- 3 4.0 1.0 -1 16
r 0.050768 2 1 ping 64 ------- 3 4.0 1.0 -1 2
+ 0.050768 1 2 ping 64 ------- 2 1.0 4.0 -1 17
- 0.050768 1 2 ping 64 ------- 2 1.0 4.0 -1 17
r 0.050768 2 3 ping 64 ------- 2 1.0 4.0 -1 5
+ 0.050768 3 4 ping 64 ------- 2 1.0 4.0 -1 5
r 0.050768 3 2 ping 64 ------- 4 5.0 1.0 -1 7
+ 0.050768 2 1 ping 64 ------- 4 5.0 1.0 -1 7
- 0.050768 3 4 ping 64 ------- 2 1.0 4.0 -1 5
- 0.050768 2 1 ping 64 ------- 4 5.0 1.0 -1 7
r 0.051024 3 4 ping 64 ------- 2 1.0 4.0 -1 1
+ 0.051024 4 3 ping 64 ------- 3 4.0 1.0 -1 18
r 0.051024 2 1 ping 64 ------- 4 5.0 1.0 -1 3
+ 0.051024 1 2 ping 64 ------- 2 1.0 4.0 -1 19
- 0.051024 4 3 ping 64 ------- 3 4.0 1.0 -1 18
- 0.051024 1 2 ping 64 ------- 2 1.0 4.0 -1 19
+ 0.06 0 2 ping 64 ------- 1 0.0 4.0 -1 20
- 0.06 0 2 ping 64 ------- 1 0.0 4.0 -1 20
+ 0.06 1 2 ping 64 ------- 2 1.0 4.0 -1 21
- 0.06 1 2 ping 64 ------- 2 1.0 4.0 -1 21
+ 0.06 4 3 ping 64 ------- 3 4.0 1.0 -1 22
- 0.06 4 3 ping 64 ------- 3 4.0 1.0 -1 22
+ 0.06 5 3 ping 64 ------- 4 5.0 1.0 -1 23
- 0.06 5 3 ping 64 ------- 4 5.0 1.0 -1 23
r 0.060256 0 2 ping 64 ------- 1 0.0 4.0 -1 12
+ 0.060256 2 3 ping 64 ------- 1 0.0 4.0 -1 12
- 0.060256 2 3 ping 64 ------- 1 0.0 4.0 -1 12
r 0.060256 1 2 ping 64 ------- 2 1.0 4.0 -1 13
+ 0.060256 2 3 ping 64 ------- 2 1.0 4.0 -1 13
r 0.060256 4 3 ping 64 ------- 3 4.0 1.0 -1 14
+ 0.060256 3 2 ping 64 ------- 3 4.0 1.0 -1 14
- 0.060256 3 2 ping 64 ------- 3 4.0 1.0 -1 14
r 0.060256 5 3 ping 64 ------- 4 5.0 1.0 -1 15
+ 0.060256 3 2 ping 64 ------- 4 5.0 1.0 -1 15
r 0.060512 2 3 ping 64 ------- 1 0.0 4.0 -1 8
+ 0.060512 3 4 ping 64 ------- 1 0.0 4.0 -1 8
- 0.060512 3 4 ping 64 ------- 1 0.0 4.0 -1 8
r 0.060512 3 2 ping 64 ------- 3 4.0 1.0 -1 10
+ 0.060512 2 1 ping 64 ------- 3 4.0 1.0 -1 10
- 0.060512 2 1 ping 64 ------- 3 4.0 1.0 -1 10
- 0.060512 2 3 ping 64 ------- 2 1.0 4.0 -1 13
- 0.060512 3 2 ping 64 ------- 4 5.0 1.0 -1 15
r 0.060768 3 4 ping 64 ------- 1 0.0 4.0 -1 4
+ 0.060768 4 3 ping 64 ------- 3 4.0 1.0 -1 24
- 0.060768 4 3 ping 64 ------- 3 4.0 1.0 -1 24
r 0.060768 2 1 ping 64 ------- 3 4.0 1.0 -1 6
+ 0.060768 1 2 ping 64 ------- 2 1.0 4.0 -1 25
- 0.060768 1 2 ping 64 ------- 2 1.0 4.0 -1 25
r 0.060768 2 3 ping 64 ------- 2 1.0 4.0 -1 9
+ 0.060768 3 4 ping 64 ------- 2 1.0 4.0 -1 9
r 0.060768 3 2 ping 64 ------- 4 5.0 1.0 -1 11
+ 0.060768 2 1 ping 64 ------- 4 5.0 1.0 -1 11
- 0.060768 3 4 ping 64 ------- 2 1.0 4.0 -1 9
- 0.060768 2 1 ping 64 ------- 4 5.0 1.0 -1 11
r 0.061024 4 3 ping 64 ------- 3 4.0 1.0 -1 16
+ 0.061024 3 2 ping 64 ------- 3 4.0 1.0 -1 16
- 0.061024 3 2 ping 64 ------- 3 4.0 1.0 -1 16
r 0.061024 1 2 ping 64 ------- 2 1.0 4.0 -1 17
+ 0.061024 2 3 ping 64 ------- 2 1.0 4.0 -1 17
- 0.061024 2 3 ping 64 ------- 2 1.0 4.0 -1 17
r 0.061024 3 4 ping 64 ------- 2 1.0 4.0 -1 5
+ 0.061024 4 3 ping 64 ------- 3 4.0 1.0 -1 26
r 0.061024 2 1 ping 64 ------- 4 5.0 1.0 -1 7
+ 0.061024 1 2 ping 64 ------- 2 1.0 4.0 -1 27
- 0.061024 4 3 ping 64 ------- 3 4.0 1.0 -1 26
- 0.061024 1 2 ping 64 ------- 2 1.0 4.0 -1 27
r 0.06128 4 3 ping 64 ------- 3 4.0 1.0 -1 18
+ 0.06128 3 2 ping 64 ------- 3 4.0 1.0 -1 18
r 0.06128 1 2 ping 64 ------- 2 1.0 4.0 -1 19
+ 0.06128 2 3 ping 64 ------- 2 1.0 4.0 -1 19
- 0.06128 3 2 ping 64 ------- 3 4.0 1.0 -1 18
- 0.06128 2 3 ping 64 ------- 2 1.0 4.0 -1 19
+ 0.07 0 2 ping 64 ------- 1 0.0 4.0 -1 28
- 0.07 0 2 ping 64 ------- 1 0.0 4.0 -1 28
+ 0.07 1 2 ping 64 ------- 2 1.0 4.0 -1 29
- 0.07 1 2 ping 64 ------- 2 1.0 4.0 -1 29
+ 0.07 4 3 ping 64 ------- 3 4.0 1.0 -1 30
- 0.07 4 3 ping 64 ------- 3 4.0 1.0 -1 30
+ 0.07 5 3 ping 64 ------- 4 5.0 1.0 -1 31
- 0.07 5 3 ping 64 ------- 4 5.0 1.0 -1 31
r 0.070256 0 2 ping 64 ------- 1 0.0 4.0 -1 20
+ 0.070256 2 3 ping 64 ------- 1 0.0 4.0 -1 20
- 0.070256 2 3 ping 64 ------- 1 0.0 4.0 -1 20
r 0.070256 1 2 ping 64 ------- 2 1.0 4.0 -1 21
+ 0.070256 2 3 ping 64 ------- 2 1.0 4.0 -1 21
r 0.070256 4 3 ping 64 ------- 3 4.0 1.0 -1 22
+ 0.070256 3 2 ping 64 ------- 3 4.0 1.0 -1 22
- 0.070256 3 2 ping 64 ------- 3 4.0 1.0 -1 22
r 0.070256 5 3 ping 64 ------- 4 5.0 1.0 -1 23
+ 0.070256 3 2 ping 64 ------- 4 5.0 1.0 -1 23
r 0.070512 2 3 ping 64 ------- 1 0.0 4.0 -1 12
+ 0.070512 3 4 ping 64 ------- 1 0.0 4.0 -1 12
- 0.070512 3 4 ping 64 ------- 1 0.0 4.0 -1 12
r 0.070512 3 2 ping 64 ------- 3 4.0 1.0 -1 14
+ 0.070512 2 1 ping 64 ------- 3 4.0 1.0 -1 14
- 0.070512 2 1 ping 64 ------- 3 4.0 1.0 -1 14
- 0.070512 2 3 ping 64 ------- 2 1.0 4.0 -1 21
- 0.070512 3 2 ping 64 ------- 4 5.0 1.0 -1 23
r 0.070768 3 4 ping 64 ------- 1 0.0 4.0 -1 8
+ 0.070768 4 3 ping 64 ------- 3 4.0 1.0 -1 32
- 0.070768 4 3 ping 64 ------- 3 4.0 1.0 -1 32
r 0.070768 2 1 ping 64 ------- 3 4.0 1.0 -1 10
+ 0.070768 1 2 ping 64 ------- 2 1.0 4.0 -1 33
- 0.070768 1 2 ping 64 ------- 2 1.0 4.0 -1 33
r 0.070768 2 3 ping 64 ------- 2 1.0 4.0 -1 13
+ 0.070768 3 4 ping 64 ------- 2 1.0 4.0 -1 13
r 0.070768 3 2 ping 64 ------- 4 5.0 1.0 -1 15
+ 0.070768 2 1 ping 64 ------- 4 5.0 1.0 -1 15
- 0.070768 3 4 ping 64 ------- 2 1.0 4.0 -1 13
- 0.070768 2 1 ping 64 ------- 4 5.0 1.0 -1 15
r 0.071024 4 3 ping 64 ------- 3 4.0 1.0 -1 24
+ 0.071024 3 2 ping 64 ------- 3 4.0 1.0 -1 24
- 0.071024 3 2 ping 64 ------- 3 4.0 1.0 -1 24
r 0.071024 1 2 ping 64 ------- 2 1.0 4.0 -1 25
+ 0.071024 2 3 ping 64 ------- 2 1.0 4.0 -1 25
- 0.071024 2 3 ping 64 ------- 2 1.0 4.0 -1 25
r 0.071024 3 4 ping 64 ------- 2 1.0 4.0 -1 9
+ 0.071024 4 3 ping 64 ------- 3 4.0 1.0 -1 34
r 0.071024 2 1 ping 64 ------- 4 5.0 1.0 -1 11
+ 0.071024 1 2 ping 64 ------- 2 1.0 4.0 -1 35
- 0.071024 4 3 ping 64 ------- 3 4.0 1.0 -1 34
- 0.071024 1 2 ping 64 ------- 2 1.0 4.0 -1 35
r 0.07128 3 2 ping 64 ------- 3 4.0 1.0 -1 16
+ 0.07128 2 1 ping 64 ------- 3 4.0 1.0 -1 16
- 0.07128 2 1 ping 64 ------- 3 4.0 1.0 -1 16
r 0.07128 2 3 ping 64 ------- 2 1.0 4.0 -1 17
+ 0.07128 3 4 ping 64 ------- 2 1.0 4.0 -1 17
- 0.07128 3 4 ping 64 ------- 2 1.0 4.0 -1 17
r 0.07128 4 3 ping 64 ------- 3 4.0 1.0 -1 26
+ 0.07128 3 2 ping 64 ------- 3 4.0 1.0 -1 26
r 0.07128 1 2 ping 64 ------- 2 1.0 4.0 -1 27
+ 0.07128 2 3 ping 64 ------- 2 1.0 4.0 -1 27
- 0.07128 3 2 ping 64 ------- 3 4.0 1.0 -1 26
- 0.07128 2 3 ping 64 ------- 2 1.0 4.0 -1 27
r 0.071536 3 2 ping 64 ------- 3 4.0 1.0 -1 18
+ 0.071536 2 1 ping 64 ------- 3 4.0 1.0 -1 18
r 0.071536 2 3 ping 64 ------- 2 1.0 4.0 -1 19
+ 0.071536 3 4 ping 64 ------- 2 1.0 4.0 -1 19
- 0.071536 2 1 ping 64 ------- 3 4.0 1.0 -1 18
- 0.071536 3 4 ping 64 ------- 2 1.0 4.0 -1 19
+ 0.08 0 2 ping 64 ------- 1 0.0 4.0 -1 36
- 0.08 0 2 ping 64 ------- 1 0.0 4.0 -1 36
+ 0.08 1 2 ping 64 ------- 2 1.0 4.0 -1 37
- 0.08 1 2 ping 64 ------- 2 1.0 4.0 -1 37
+ 0.08 4 3 ping 64 ------- 3 4.0 1.0 -1 38
- 0.08 4 3 ping 64 ------- 3 4.0 1.0 -1 38
+ 0.08 5 3 ping 64 ------- 4 5.0 1.0 -1 39
- 0.08 5 3 ping 64 ------- 4 5.0 1.0 -1 39
r 0.080256 0 2 ping 64 ------- 1 0.0 4.0 -1 28
+ 0.080256 2 3 ping 64 ------- 1 0.0 4.0 -1 28
- 0.080256 2 3 ping 64 ------- 1 0.0 4.0 -1 28
r 0.080256 1 2 ping 64 ------- 2 1.0 4.0 -1 29
+ 0.080256 2 3 ping 64 ------- 2 1.0 4.0 -1 29
r 0.080256 4 3 ping 64 ------- 3 4.0 1.0 -1 30
+ 0.080256 3 2 ping 64 ------- 3 4.0 1.0 -1 30
- 0.080256 3 2 ping 64 ------- 3 4.0 1.0 -1 30
r 0.080256 5 3 ping 64 ------- 4 5.0 1.0 -1 31
+ 0.080256 3 2 ping 64 ------- 4 5.0 1.0 -1 31
r 0.080512 2 3 ping 64 ------- 1 0.0 4.0 -1 20
+ 0.080512 3 4 ping 64 ------- 1 0.0 4.0 -1 20
- 0.080512 3 4 ping 64 ------- 1 0.0 4.0 -1 20
r 0.080512 3 2 ping 64 ------- 3 4.0 1.0 -1 22
+ 0.080512 2 1 ping 64 ------- 3 4.0 1.0 -1 22
- 0.080512 2 1 ping 64 ------- 3 4.0 1.0 -1 22
- 0.080512 2 3 ping 64 ------- 2 1.0 4.0 -1 29
- 0.080512 3 2 ping 64 ------- 4 5.0 1.0 -1 31
r 0.080768 3 4 ping 64 ------- 1 0.0 4.0 -1 12
+ 0.080768 4 3 ping 64 ------- 3 4.0 1.0 -1 40
- 0.080768 4 3 ping 64 ------- 3 4.0 1.0 -1 40
r 0.080768 2 1 ping 64 ------- 3 4.0 1.0 -1 14
+ 0.080768 1 2 ping 64 ------- 2 1.0 4.0 -1 41
- 0.080768 1 2 ping 64 ------- 2 1.0 4.0 -1 41
r 0.080768 2 3 ping 64 ------- 2 1.0 4.0 -1 21
+ 0.080768 3 4 ping 64 ------- 2 1.0 4.0 -1 21
r 0.080768 3 2 ping 64 ------- 4 5.0 1.0 -1 23
+ 0.080768 2 1 ping 64 ------- 4 5.0 1.0 -1 23
- 0.080768 3 4 ping 64 ------- 2 1.0 4.0 -1 21
- 0.080768 2 1 ping 64 ------- 4 5.0 1.0 -1 23
r 0.081024 4 3 ping 64 ------- 3 4.0 1.0 -1 32
+ 0.081024 3 2 ping 64 ------- 3 4.0 1.0 -1 32
- 0.081024 3 2 ping 64 ------- 3 4.0 1.0 -1 32
r 0.081024 1 2 ping 64 ------- 2 1.0 4.0 -1 33
+ 0.081024 2 3 ping 64 ------- 2 1.0 4.0 -1 33
- 0.081024 2 3 ping 64 ------- 2 1.0 4.0 -1 33
r 0.081024 3 4 ping 64 ------- 2 1.0 4.0 -1 13
+ 0.081024 4 3 ping 64 ------- 3 4.0 1.0 -1 42
r 0.081024 2 1 ping 64 ------- 4 5.0 1.0 -1 15
+ 0.081024 1 2 ping 64 ------- 2 1.0 4.0 -1 43
- 0.081024 4 3 ping 64 ------- 3 4.0 1.0 -1 42
- 0.081024 1 2 ping 64 ------- 2 1.0 4.0 -1 43
r 0.08128 3 2 ping 64 ------- 3 4.0 1.0 -1 24
+ 0.08128 2 1 ping 64 ------- 3 4.0 1.0 -1 24
- 0.08128 2 1 ping 64 ------- 3 4.0 1.0 -1 24
r 0.08128 2 3 ping 64 ------- 2 1.0 4.0 -1 25
+ 0.08128 3 4 ping 64 ------- 2 1.0 4.0 -1 25
- 0.08128 3 4 ping 64 ------- 2 1.0 4.0 -1 25
r 0.08128 4 3 ping 64 ------- 3 4.0 1.0 -1 34
+ 0.08128 3 2 ping 64 ------- 3 4.0 1.0 -1 34
r 0.08128 1 2 ping 64 ------- 2 1.0 4.0 -1 35
+ 0.08128 2 3 ping 64 ------- 2 1.0 4.0 -1 35
- 0.08128 3 2 ping 64 ------- 3 4.0 1.0 -1 34
- 0.08128 2 3 ping 64 ------- 2 1.0 4.0 -1 35
r 0.081536 2 1 ping 64 ------- 3 4.0 1.0 -1 16
r 0.081536 3 4 ping 64 ------- 2 1.0 4.0 -1 17
r 0.081536 3 2 ping 64 ------- 3 4.0 1.0 -1 26
+ 0.081536 2 1 ping 64 ------- 3 4.0 1.0 -1 26
r 0.081536 2 3 ping 64 ------- 2 1.0 4.0 -1 27
+ 0.081536 3 4 ping 64 ------- 2 1.0 4.0 -1 27
- 0.081536 2 1 ping 64 ------- 3 4.0 1.0 -1 26
- 0.081536 3 4 ping 64 ------- 2 1.0 4.0 -1 27
r 0.081792 2 1 ping 64 ------- 3 4.0 1.0 -1 18
r 0.081792 3 4 ping 64 ------- 2 1.0 4.0 -1 19
+ 0.09 0 2 ping 64 ------- 1 0.0 4.0 -1 44
- 0.09 0 2 ping 64 ------- 1 0.0 4.0 -1 44
+ 0.09 1 2 ping 64 ------- 2 1.0 4.0 -1 45
- 0.09 1 2 ping 64 ------- 2 1.0 4.0 -1 45
+ 0.09 4 3 ping 64 ------- 3 4.0 1.0 -1 46
- 0.09 4 3 ping 64 ------- 3 4.0 1.0 -1 46
+ 0.09 5 3 ping 64 ------- 4 5.0 1.0 -1 47
- 0.09 5 3 ping 64 ------- 4 5.0 1.0 -1 47
r 0.090256 0 2 ping 64 ------- 1 0.0 4.0 -1 36
+ 0.090256 2 3 ping 64 ------- 1 0.0 4.0 -1 36
- 0.090256 2 3 ping 64 ------- 1 0.0 4.0 -1 36
r 0.090256 1 2 ping 64 ------- 2 1.0 4.0 -1 37
+ 0.090256 2 3 ping 64 ------- 2 1.0 4.0 -1 37
r 0.090256 4 3 ping 64 ------- 3 4.0 1.0 -1 38
+ 0.090256 3 2 ping 64 ------- 3 4.0 1.0 -1 38
- 0.090256 3 2 ping 64 ------- 3 4.0 1.0 -1 38
r 0.090256 5 3 ping 64 ------- 4 5.0 1.0 -1 39
+ 0.090256 3 2 ping 64 ------- 4 5.0 1.0 -1 39
r 0.090512 2 3 ping 64 ------- 1 0.0 4.0 -1 28
+ 0.090512 3 4 ping 64 ------- 1 0.0 4.0 -1 28
- 0.090512 3 4 ping 64 ------- 1 0.0 4.0 -1 28
r 0.090512 3 2 ping 64 ------- 3 4.0 1.0 -1 30
+ 0.090512 2 1 ping 64 ------- 3 4.0 1.0 -1 30
- 0.090512 2 1 ping 64 ------- 3 4.0 1.0 -1 30
- 0.090512 2 3 ping 64 ------- 2 1.0 4.0 -1 37
- 0.090512 3 2 ping 64 ------- 4 5.0 1.0 -1 39
r 0.090768 3 4 ping 64 ------- 1 0.0 4.0 -1 20
+ 0.090768 4 3 ping 64 ------- 3 4.0 1.0 -1 48
- 0.090768 4 3 ping 64 ------- 3 4.0 1.0 -1 48
r 0.090768 2 1 ping 64 ------- 3 4.0 1.0 -1 22
+ 0.090768 1 2 ping 64 ------- 2 1.0 4.0 -1 49
- 0.090768 1 2 ping 64 ------- 2 1.0 4.0 -1 49
r 0.090768 2 3 ping 64 ------- 2 1.0 4.0 -1 29
+ 0.090768 3 4 ping 64 ------- 2 1.0 4.0 -1 29
r 0.090768 3 2 ping 64 ------- 4 5.0 1.0 -1 31
+ 0.090768 2 1 ping 64 ------- 4 5.0 1.0 -1 31
- 0.090768 3 4 ping 64 ------- 2 1.0 4.0 -1 29
- 0.090768 2 1 ping 64 ------- 4 5.0 1.0 -1 31
r 0.091024 4 3 ping 64 ------- 3 4.0 1.0 -1 40
+ 0.091024 3 2 ping 64 ------- 3 4.0 1.0 -1 40
- 0.091024 3 2 ping 64 ------- 3 4.0 1.0 -1 40
r 0.091024 1 2 ping 64 ------- 2 1.0 4.0 -1 41
+ 0.091024 2 3 ping 64 ------- 2 1.0 4.0 -1 41
- 0.091024 2 3 ping 64 ------- 2 1.0 4.0 -1 41
r 0.091024 3 4 ping 64 ------- 2 1.0 4.0 -1 21
+ 0.091024 4 3 ping 64 ------- 3 4.0 1.0 -1 50
r 0.091024 2 1 ping 64 ------- 4 5.0 1.0 -1 23
+ 0.091024 1 2 ping 64 ------- 2 1.0 4.0 -1 51
- 0.091024 4 3 ping 64 ------- 3 4.0 1.0 -1 50
- 0.091024 1 2 ping 64 ------- 2 1.0 4.0 -1 51
r 0.09128 3 2 ping 64 ------- 3 4.0 1.0 -1 32
+ 0.09128 2 1 ping 64 ------- 3 4.0 1.0 -1 32
- 0.09128 2 1 ping 64 ------- 3 4.0 1.0 -1 32
r 0.09128 2 3 ping 64 ------- 2 1.0 4.0 -1 33
+ 0.09128 3 4 ping 64 ------- 2 1.0 4.0 -1 33
- 0.09128 3 4 ping 64 ------- 2 1.0 4.0 -1 33
r 0.09128 4 3 ping 64 ------- 3 4.0 1.0 -1 42
+ 0.09128 3 2 ping 64 ------- 3 4.0 1.0 -1 42
r 0.09128 1 2 ping 64 ------- 2 1.0 4.0 -1 43
+ 0.09128 2 3 ping 64 ------- 2 1.0 4.0 -1 43
- 0.09128 3 2 ping 64 ------- 3 4.0 1.0 -1 42
- 0.09128 2 3 ping 64 ------- 2 1.0 4.0 -1 43
r 0.091536 2 1 ping 64 ------- 3 4.0 1.0 -1 24
r 0.091536 3 4 ping 64 ------- 2 1.0 4.0 -1 25
r 0.091536 3 2 ping 64 ------- 3 4.0 1.0 -1 34
+ 0.091536 2 1 ping 64 ------- 3 4.0 1.0 -1 34
r 0.091536 2 3 ping 64 ------- 2 1.0 4.0 -1 35
+ 0.091536 3 4 ping 64 ------- 2 1.0 4.0 -1 35
- 0.091536 2 1 ping 64 ------- 3 4.0 1.0 -1 34
- 0.091536 3 4 ping 64 ------- 2 1.0 4.0 -1 35
r 0.091792 2 1 ping 64 ------- 3 4.0 1.0 -1 26
r 0.091792 3 4 ping 64 ------- 2 1.0 4.0 -1 27
+ 0.1 0 2 ping 64 ------- 1 0.0 4.0 -1 52
- 0.1 0 2 ping 64 ------- 1 0.0 4.0 -1 52
+ 0.1 1 2 ping 64 ------- 2 1.0 4.0 -1 53
- 0.1 1 2 ping 64 ------- 2 1.0 4.0 -1 53
+ 0.1 4 3 ping 64 ------- 3 4.0 1.0 -1 54
- 0.1 4 3 ping 64 ------- 3 4.0 1.0 -1 54
+ 0.1 5 3 ping 64 ------- 4 5.0 1.0 -1 55
- 0.1 5 3 ping 64 ------- 4 5.0 1.0 -1 55
r 0.100256 0 2 ping 64 ------- 1 0.0 4.0 -1 44
+ 0.100256 2 3 ping 64 ------- 1 0.0 4.0 -1 44
- 0.100256 2 3 ping 64 ------- 1 0.0 4.0 -1 44
r 0.100256 1 2 ping 64 ------- 2 1.0 4.0 -1 45
+ 0.100256 2 3 ping 64 ------- 2 1.0 4.0 -1 45
r 0.100256 4 3 ping 64 ------- 3 4.0 1.0 -1 46
+ 0.100256 3 2 ping 64 ------- 3 4.0 1.0 -1 46
- 0.100256 3 2 ping 64 ------- 3 4.0 1.0 -1 46
r 0.100256 5 3 ping 64 ------- 4 5.0 1.0 -1 47
+ 0.100256 3 2 ping 64 ------- 4 5.0 1.0 -1 47
r 0.100512 2 3 ping 64 ------- 1 0.0 4.0 -1 36
+ 0.100512 3 4 ping 64 ------- 1 0.0 4.0 -1 36
- 0.100512 3 4 ping 64 ------- 1 0.0 4.0 -1 36
r 0.100512 3 2 ping 64 ------- 3 4.0 1.0 -1 38
+ 0.100512 2 1 ping 64 ------- 3 4.0 1.0 -1 38
- 0.100512 2 1 ping 64 ------- 3 4.0 1.0 -1 38
- 0.100512 2 3 ping 64 ------- 2 1.0 4.0 -1 45
- 0.100512 3 2 ping 64 ------- 4 5.0 1.0 -1 47
r 0.100768 3 4 ping 64 ------- 1 0.0 4.0 -1 28
+ 0.100768 4 3 ping 64 ------- 3 4.0 1.0 -1 56
- 0.100768 4 3 ping 64 ------- 3 4.0 1.0 -1 56
r 0.100768 2 1 ping 64 ------- 3 4.0 1.0 -1 30
+ 0.100768 1 2 ping 64 ------- 2 1.0 4.0 -1 57
- 0.100768 1 2 ping 64 ------- 2 1.0 4.0 -1 57
r 0.100768 2 3 ping 64 ------- 2 1.0 4.0 -1 37
+ 0.100768 3 4 ping 64 ------- 2 1.0 4.0 -1 37
r 0.100768 3 2 ping 64 ------- 4 5.0 1.0 -1 39
+ 0.100768 2 1 ping 64 ------- 4 5.0 1.0 -1 39
- 0.100768 3 4 ping 64 ------- 2 1.0 4.0 -1 37
- 0.100768 2 1 ping 64 ------- 4 5.0 1.0 -1 39
r 0.101024 4 3 ping 64 ------- 3 4.0 1.0 -1 48
+ 0.101024 3 2 ping 64 ------- 3 4.0 1.0 -1 48
- 0.101024 3 2 ping 64 ------- 3 4.0 1.0 -1 48
r 0.101024 1 2 ping 64 ------- 2 1.0 4.0 -1 49
+ 0.101024 2 3 ping 64 ------- 2 1.0 4.0 -1 49
- 0.101024 2 3 ping 64 ------- 2 1.0 4.0 -1 49
r 0.101024 3 4 ping 64 ------- 2 1.0 4.0 -1 29
+ 0.101024 4 3 ping 64 ------- 3 4.0 1.0 -1 58
r 0.101024 2 1 ping 64 ------- 4 5.0 1.0 -1 31
+ 0.101024 1 2 ping 64 ------- 2 1.0 4.0 -1 59
- 0.101024 4 3 ping 64 ------- 3 4.0 1.0 -1 58
- 0.101024 1 2 ping 64 ------- 2 1.0 4.0 -1 59
r 0.10128 3 2 ping 64 ------- 3 4.0 1.0 -1 40
+ 0.10128 2 1 ping 64 ------- 3 4.0 1.0 -1 40
- 0.10128 2 1 ping 64 ------- 3 4.0 1.0 -1 40
r 0.10128 2 3 ping 64 ------- 2 1.0 4.0 -1 41
+ 0.10128 3 4 ping 64 ------- 2 1.0 4.0 -1 41
- 0.10128 3 4 ping 64 ------- 2 1.0 4.0 -1 41
r 0.10128 4 3 ping 64 ------- 3 4.0 1.0 -1 50
+ 0.10128 3 2 ping 64 ------- 3 4.0 1.0 -1 50
r 0.10128 1 2 ping 64 ------- 2 1.0 4.0 -1 51
+ 0.10128 2 3 ping 64 ------- 2 1.0 4.0 -1 51
- 0.10128 3 2 ping 64 ------- 3 4.0 1.0 -1 50
- 0.10128 2 3 ping 64 ------- 2 1.0 4.0 -1 51
r 0.101536 2 1 ping 64 ------- 3 4.0 1.0 -1 32
r 0.101536 3 4 ping 64 ------- 2 1.0 4.0 -1 33
r 0.101536 3 2 ping 64 ------- 3 4.0 1.0 -1 42
+ 0.101536 2 1 ping 64 ------- 3 4.0 1.0 -1 42
r 0.101536 2 3 ping 64 ------- 2 1.0 4.0 -1 43
+ 0.101536 3 4 ping 64 ------- 2 1.0 4.0 -1 43
- 0.101536 2 1 ping 64 ------- 3 4.0 1.0 -1 42
- 0.101536 3 4 ping 64 ------- 2 1.0 4.0 -1 43
r 0.101792 2 1 ping 64 ------- 3 4.0 1.0 -1 34
r 0.101792 3 4 ping 64 ------- 2 1.0 4.0 -1 35
+ 0.11 0 2 ping 64 ------- 1 0.0 4.0 -1 60
- 0.11 0 2 ping 64 ------- 1 0.0 4.0 -1 60
+ 0.11 1 2 ping 64 ------- 2 1.0 4.0 -1 61
- 0.11 1 2 ping 64 ------- 2 1.0 4.0 -1 61
+ 0.11 4 3 ping 64 ------- 3 4.0 1.0 -1 62
- 0.11 4 3 ping 64 ------- 3 4.0 1.0 -1 62
+ 0.11 5 3 ping 64 ------- 4 5.0 1.0 -1 63
- 0.11 5 3 ping 64 ------- 4 5.0 1.0 -1 63
r 0.110256 0 2 ping 64 ------- 1 0.0 4.0 -1 52
+ 0.110256 2 3 ping 64 ------- 1 0.0 4.0 -1 52
- 0.110256 2 3 ping 64 ------- 1 0.0 4.0 -1 52
r 0.110256 1 2 ping 64 ------- 2 1.0 4.0 -1 53
+ 0.110256 2 3 ping 64 ------- 2 1.0 4.0 -1 53
r 0.110256 4 3 ping 64 ------- 3 4.0 1.0 -1 54
+ 0.110256 3 2 ping 64 ------- 3 4.0 1.0 -1 54
- 0.110256 3 2 ping 64 ------- 3 4.0 1.0 -1 54
r 0.110256 5 3 ping 64 ------- 4 5.0 1.0 -1 55
+ 0.110256 3 2 ping 64 ------- 4 5.0 1.0 -1 55
r 0.110512 2 3 ping 64 ------- 1 0.0 4.0 -1 44
+ 0.110512 3 4 ping 64 ------- 1 0.0 4.0 -1 44
- 0.110512 3 4 ping 64 ------- 1 0.0 4.0 -1 44
r 0.110512 3 2 ping 64 ------- 3 4.0 1.0 -1 46
+ 0.110512 2 1 ping 64 ------- 3 4.0 1.0 -1 46
- 0.110512 2 1 ping 64 ------- 3 4.0 1.0 -1 46
- 0.110512 2 3 ping 64 ------- 2 1.0 4.0 -1 53
- 0.110512 3 2 ping 64 ------- 4 5.0 1.0 -1 55
r 0.110768 3 4 ping 64 ------- 1 0.0 4.0 -1 36
+ 0.110768 4 3 ping 64 ------- 3 4.0 1.0 -1 64
- 0.110768 4 3 ping 64 ------- 3 4.0 1.0 -1 64
r 0.110768 2 1 ping 64 ------- 3 4.0 1.0 -1 38
+ 0.110768 1 2 ping 64 ------- 2 1.0 4.0 -1 65
- 0.110768 1 2 ping 64 ------- 2 1.0 4.0 -1 65
r 0.110768 2 3 ping 64 ------- 2 1.0 4.0 -1 45
+ 0.110768 3 4 ping 64 ------- 2 1.0 4.0 -1 45
r 0.110768 3 2 ping 64 ------- 4 5.0 1.0 -1 47
+ 0.110768 2 1 ping 64 ------- 4 5.0 1.0 -1 47
- 0.110768 3 4 ping 64 ------- 2 1.0 4.0 -1 45
- 0.110768 2 1 ping 64 ------- 4 5.0 1.0 -1 47
r 0.111024 4 3 ping 64 ------- 3 4.0 1.0 -1 56
+ 0.111024 3 2 ping 64 ------- 3 4.0 1.0 -1 56
- 0.111024 3 2 ping 64 ------- 3 4.0 1.0 -1 56
r 0.111024 1 2 ping 64 ------- 2 1.0 4.0 -1 57
+ 0.111024 2 3 ping 64 ------- 2 1.0 4.0 -1 57
- 0.111024 2 3 ping 64 ------- 2 1.0 4.0 -1 57
r 0.111024 3 4 ping 64 ------- 2 1.0 4.0 -1 37
+ 0.111024 4 3 ping 64 ------- 3 4.0 1.0 -1 66
r 0.111024 2 1 ping 64 ------- 4 5.0 1.0 -1 39
+ 0.111024 1 2 ping 64 ------- 2 1.0 4.0 -1 67
- 0.111024 4 3 ping 64 ------- 3 4.0 1.0 -1 66
- 0.111024 1 2 ping 64 ------- 2 1.0 4.0 -1 67
r 0.11128 3 2 ping 64 ------- 3 4.0 1.0 -1 48
+ 0.11128 2 1 ping 64 ------- 3 4.0 1.0 -1 48
- 0.11128 2 1 ping 64 ------- 3 4.0 1.0 -1 48
r 0.11128 2 3 ping 64 ------- 2 1.0 4.0 -1 49
+ 0.11128 3 4 ping 64 ------- 2 1.0 4.0 -1 49
- 0.11128 3 4 ping 64 ------- 2 1.0 4.0 -1 49
r 0.11128 4 3 ping 64 ------- 3 4.0 1.0 -1 58
+ 0.11128 3 2 ping 64 ------- 3 4.0 1.0 -1 58
r 0.11128 1 2 ping 64 ------- 2 1.0 4.0 -1 59
+ 0.11128 2 3 ping 64 ------- 2 1.0 4.0 -1 59
- 0.11128 3 2 ping 64 ------- 3 4.0 1.0 -1 58
- 0.11128 2 3 ping 64 ------- 2 1.0 4.0 -1 59
r 0.111536 2 1 ping 64 ------- 3 4.0 1.0 -1 40
r 0.111536 3 4 ping 64 ------- 2 1.0 4.0 -1 41
r 0.111536 3 2 ping 64 ------- 3 4.0 1.0 -1 50
+ 0.111536 2 1 ping 64 ------- 3 4.0 1.0 -1 50
r 0.111536 2 3 ping 64 ------- 2 1.0 4.0 -1 51
+ 0.111536 3 4 ping 64 ------- 2 1.0 4.0 -1 51
- 0.111536 2 1 ping 64 ------- 3 4.0 1.0 -1 50
- 0.111536 3 4 ping 64 ------- 2 1.0 4.0 -1 51
r 0.111792 2 1 ping 64 ------- 3 4.0 1.0 -1 42
r 0.111792 3 4 ping 64 ------- 2 1.0 4.0 -1 43
+ 0.12 0 2 ping 64 ------- 1 0.0 4.0 -1 68
- 0.12 0 2 ping 64 ------- 1 0.0 4.0 -1 68
+ 0.12 1 2 ping 64 ------- 2 1.0 4.0 -1 69
- 0.12 1 2 ping 64 ------- 2 1.0 4.0 -1 69
+ 0.12 4 3 ping 64 ------- 3 4.0 1.0 -1 70
- 0.12 4 3 ping 64 ------- 3 4.0 1.0 -1 70
+ 0.12 5 3 ping 64 ------- 4 5.0 1.0 -1 71
- 0.12 5 3 ping 64 ------- 4 5.0 1.0 -1 71
r 0.120256 0 2 ping 64 ------- 1 0.0 4.0 -1 60
+ 0.120256 2 3 ping 64 ------- 1 0.0 4.0 -1 60
- 0.120256 2 3 ping 64 ------- 1 0.0 4.0 -1 60
r 0.120256 1 2 ping 64 ------- 2 1.0 4.0 -1 61
+ 0.120256 2 3 ping 64 ------- 2 1.0 4.0 -1 61
r 0.120256 4 3 ping 64 ------- 3 4.0 1.0 -1 62
+ 0.120256 3 2 ping 64 ------- 3 4.0 1.0 -1 62
- 0.120256 3 2 ping 64 ------- 3 4.0 1.0 -1 62
r 0.120256 5 3 ping 64 ------- 4 5.0 1.0 -1 63
+ 0.120256 3 2 ping 64 ------- 4 5.0 1.0 -1 63
r 0.120512 2 3 ping 64 ------- 1 0.0 4.0 -1 52
+ 0.120512 3 4 ping 64 ------- 1 0.0 4.0 -1 52
- 0.120512 3 4 ping 64 ------- 1 0.0 4.0 -1 52
r 0.120512 3 2 ping 64 ------- 3 4.0 1.0 -1 54
+ 0.120512 2 1 ping 64 ------- 3 4.0 1.0 -1 54
- 0.120512 2 1 ping 64 ------- 3 4.0 1.0 -1 54
- 0.120512 2 3 ping 64 ------- 2 1.0 4.0 -1 61
- 0.120512 3 2 ping 64 ------- 4 5.0 1.0 -1 63
r 0.120768 3 4 ping 64 ------- 1 0.0 4.0 -1 44
+ 0.120768 4 3 ping 64 ------- 3 4.0 1.0 -1 72
- 0.120768 4 3 ping 64 ------- 3 4.0 1.0 -1 72
r 0.120768 2 1 ping 64 ------- 3 4.0 1.0 -1 46
+ 0.120768 1 2 ping 64 ------- 2 1.0 4.0 -1 73
- 0.120768 1 2 ping 64 ------- 2 1.0 4.0 -1 73
r 0.120768 2 3 ping 64 ------- 2 1.0 4.0 -1 53
+ 0.120768 3 4 ping 64 ------- 2 1.0 4.0 -1 53
r 0.120768 3 2 ping 64 ------- 4 5.0 1.0 -1 55
+ 0.120768 2 1 ping 64 ------- 4 5.0 1.0 -1 55
- 0.120768 3 4 ping 64 ------- 2 1.0 4.0 -1 53
- 0.120768 2 1 ping 64 ------- 4 5.0 1.0 -1 55
r 0.121024 4 3 ping 64 ------- 3 4.0 1.0 -1 64
+ 0.121024 3 2 ping 64 ------- 3 4.0 1.0 -1 64
- 0.121024 3 2 ping 64 ------- 3 4.0 1.0 -1 64
r 0.121024 1 2 ping 64 ------- 2 1.0 4.0 -1 65
+ 0.121024 2 3 ping 64 ------- 2 1.0 4.0 -1 65
- 0.121024 2 3 ping 64 ------- 2 1.0 4.0 -1 65
r 0.121024 3 4 ping 64 ------- 2 1.0 4.0 -1 45
+ 0.121024 4 3 ping 64 ------- 3 4.0 1.0 -1 74
r 0.121024 2 1 ping 64 ------- 4 5.0 1.0 -1 47
+ 0.121024 1 2 ping 64 ------- 2 1.0 4.0 -1 75
- 0.121024 4 3 ping 64 ------- 3 4.0 1.0 -1 74
- 0.121024 1 2 ping 64 ------- 2 1.0 4.0 -1 75
r 0.12128 3 2 ping 64 ------- 3 4.0 1.0 -1 56
+ 0.12128 2 1 ping 64 ------- 3 4.0 1.0 -1 56
- 0.12128 2 1 ping 64 ------- 3 4.0 1.0 -1 56
r 0.12128 2 3 ping 64 ------- 2 1.0 4.0 -1 57
+ 0.12128 3 4 ping 64 ------- 2 1.0 4.0 -1 57
- 0.12128 3 4 ping 64 ------- 2 1.0 4.0 -1 57
r 0.12128 4 3 ping 64 ------- 3 4.0 1.0 -1 66
+ 0.12128 3 2 ping 64 ------- 3 4.0 1.0 -1 66
r 0.12128 1 2 ping 64 ------- 2 1.0 4.0 -1 67
+ 0.12128 2 3 ping 64 ------- 2 1.0 4.0 -1 67
- 0.12128 3 2 ping 64 ------- 3 4.0 1.0 -1 66
- 0.12128 2 3 ping 64 ------- 2 1.0 4.0 -1 67
r 0.121536 2 1 ping 64 ------- 3 4.0 1.0 -1 48
r 0.121536 3 4 ping 64 ------- 2 1.0 4.0 -1 49
r 0.121536 3 2 ping 64 ------- 3 4.0 1.0 -1 58
+ 0.121536 2 1 ping 64 ------- 3 4.0 1.0 -1 58
r 0.121536 2 3 ping 64 ------- 2 1.0 4.0 -1 59
+ 0.121536 3 4 ping 64 ------- 2 1.0 4.0 -1 59
- 0.121536 2 1 ping 64 ------- 3 4.0 1.0 -1 58
- 0.121536 3 4 ping 64 ------- 2 1.0 4.0 -1 59
r 0.121792 2 1 ping 64 ------- 3 4.0 1.0 -1 50
r 0.121792 3 4 ping 64 ------- 2 1.0 4.0 -1 51
+ 0.13 0 2 ping 64 ------- 1 0.0 4.0 -1 76
- 0.13 0 2 ping 64 ------- 1 0.0 4.0 -1 76
+ 0.13 1 2 ping 64 ------- 2 1.0 4.0 -1 77
- 0.13 1 2 ping 64 ------- 2 1.0 4.0 -1 77
+ 0.13 4 3 ping 64 ------- 3 4.0 1.0 -1 78
- 0.13 4 3 ping 64 ------- 3 4.0 1.0 -1 78
+ 0.13 5 3 ping 64 ------- 4 5.0 1.0 -1 79
- 0.13 5 3 ping 64 ------- 4 5.0 1.0 -1 79
r 0.130256 0 2 ping 64 ------- 1 0.0 4.0 -1 68
+ 0.130256 2 3 ping 64 ------- 1 0.0 4.0 -1 68
- 0.130256 2 3 ping 64 ------- 1 0.0 4.0 -1 68
r 0.130256 1 2 ping 64 ------- 2 1.0 4.0 -1 69
+ 0.130256 2 3 ping 64 ------- 2 1.0 4.0 -1 69
r 0.130256 4 3 ping 64 ------- 3 4.0 1.0 -1 70
+ 0.130256 3 2 ping 64 ------- 3 4.0 1.0 -1 70
- 0.130256 3 2 ping 64 ------- 3 4.0 1.0 -1 70
r 0.130256 5 3 ping 64 ------- 4 5.0 1.0 -1 71
+ 0.130256 3 2 ping 64 ------- 4 5.0 1.0 -1 71
r 0.130512 2 3 ping 64 ------- 1 0.0 4.0 -1 60
+ 0.130512 3 4 ping 64 ------- 1 0.0 4.0 -1 60
- 0.130512 3 4 ping 64 ------- 1 0.0 4.0 -1 60
r 0.130512 3 2 ping 64 ------- 3 4.0 1.0 -1 62
+ 0.130512 2 1 ping 64 ------- 3 4.0 1.0 -1 62
- 0.130512 2 1 ping 64 ------- 3 4.0 1.0 -1 62
- 0.130512 2 3 ping 64 ------- 2 1.0 4.0 -1 69
- 0.130512 3 2 ping 64 ------- 4 5.0 1.0 -1 71
r 0.130768 3 4 ping 64 ------- 1 0.0 4.0 -1 52
+ 0.130768 4 3 ping 64 ------- 3 4.0 1.0 -1 80
- 0.130768 4 3 ping 64 ------- 3 4.0 1.0 -1 80
r 0.130768 2 1 ping 64 ------- 3 4.0 1.0 -1 54
+ 0.130768 1 2 ping 64 ------- 2 1.0 4.0 -1 81
- 0.130768 1 2 ping 64 ------- 2 1.0 4.0 -1 81
r 0.130768 2 3 ping 64 ------- 2 1.0 4.0 -1 61
+ 0.130768 3 4 ping 64 ------- 2 1.0 4.0 -1 61
r 0.130768 3 2 ping 64 ------- 4 5.0 1.0 -1 63
+ 0.130768 2 1 ping 64 ------- 4 5.0 1.0 -1 63
- 0.130768 3 4 ping 64 ------- 2 1.0 4.0 -1 61
- 0.130768 2 1 ping 64 ------- 4 5.0 1.0 -1 63
r 0.131024 4 3 ping 64 ------- 3 4.0 1.0 -1 72
+ 0.131024 3 2 ping 64 ------- 3 4.0 1.0 -1 72
- 0.131024 3 2 ping 64 ------- 3 4.0 1.0 -1 72
r 0.131024 1 2 ping 64 ------- 2 1.0 4.0 -1 73
+ 0.131024 2 3 ping 64 ------- 2 1.0 4.0 -1 73
- 0.131024 2 3 ping 64 ------- 2 1.0 4.0 -1 73
r 0.131024 3 4 ping 64 ------- 2 1.0 4.0 -1 53
+ 0.131024 4 3 ping 64 ------- 3 4.0 1.0 -1 82
r 0.131024 2 1 ping 64 ------- 4 5.0 1.0 -1 55
+ 0.131024 1 2 ping 64 ------- 2 1.0 4.0 -1 83
- 0.131024 4 3 ping 64 ------- 3 4.0 1.0 -1 82
- 0.131024 1 2 ping 64 ------- 2 1.0 4.0 -1 83
r 0.13128 3 2 ping 64 ------- 3 4.0 1.0 -1 64
+ 0.13128 2 1 ping 64 ------- 3 4.0 1.0 -1 64
- 0.13128 2 1 ping 64 ------- 3 4.0 1.0 -1 64
r 0.13128 2 3 ping 64 ------- 2 1.0 4.0 -1 65
+ 0.13128 3 4 ping 64 ------- 2 1.0 4.0 -1 65
- 0.13128 3 4 ping 64 ------- 2 1.0 4.0 -1 65
r 0.13128 4 3 ping 64 ------- 3 4.0 1.0 -1 74
+ 0.13128 3 2 ping 64 ------- 3 4.0 1.0 -1 74
r 0.13128 1 2 ping 64 ------- 2 1.0 4.0 -1 75
+ 0.13128 2 3 ping 64 ------- 2 1.0 4.0 -1 75
- 0.13128 3 2 ping 64 ------- 3 4.0 1.0 -1 74
- 0.13128 2 3 ping 64 ------- 2 1.0 4.0 -1 75