+ 0.5 0 1 cbr 500 ------- 1 0.0 2.0 0 0
- 0.5 0 1 cbr 500 ------- 1 0.0 2.0 0 0
+ 0.505 0 1 cbr 500 ------- 1 0.0 2.0 1 1
- 0.505 0 1 cbr 500 ------- 1 0.0 2.0 1 1
+ 0.51 0 1 cbr 500 ------- 1 0.0 2.0 2 2
- 0.51 0 1 cbr 500 ------- 1 0.0 2.0 2 2
r 0.512 0 1 cbr 500 ------- 1 0.0 2.0 0 0
+ 0.512 1 2 cbr 500 ------- 1 0.0 2.0 0 0
- 0.512 1 2 cbr 500 ------- 1 0.0 2.0 0 0
+ 0.515 0 1 cbr 500 ------- 1 0.0 2.0 3 3
- 0.515 0 1 cbr 500 ------- 1 0.0 2.0 3 3
r 0.517 0 1 cbr 500 ------- 1 0.0 2.0 1 1
+ 0.517 1 2 cbr 500 ------- 1 0.0 2.0 1 1
- 0.517 1 2 cbr 500 ------- 1 0.0 2.0 1 1
+ 0.52 0 1 cbr 500 ------- 1 0.0 2.0 4 4
- 0.52 0 1 cbr 500 ------- 1 0.0 2.0 4 4
r 0.522 0 1 cbr 500 ------- 1 0.0 2.0 2 2
+ 0.522 1 2 cbr 500 ------- 1 0.0 2.0 2 2
- 0.522 1 2 cbr 500 ------- 1 0.0 2.0 2 2
+ 0.525 0 1 cbr 500 ------- 1 0.0 2.0 5 5
- 0.525 0 1 cbr 500 ------- 1 0.0 2.0 5 5
r 0.527 0 1 cbr 500 ------- 1 0.0 2.0 3 3
+ 0.527 1 2 cbr 500 ------- 1 0.0 2.0 3 3
- 0.527 1 2 cbr 500 ------- 1 0.0 2.0 3 3
+ 0.53 0 1 cbr 500 ------- 1 0.0 2.0 6 6
- 0.53 0 1 cbr 500 ------- 1 0.0 2.0 6 6
r 0.532 0 1 cbr 500 ------- 1 0.0 2.0 4 4
+ 0.532 1 2 cbr 500 ------- 1 0.0 2.0 4 4
- 0.532 1 2 cbr 500 ------- 1 0.0 2.0 4 4
r 0.534 1 2 cbr 500 ------- 1 0.0 2.0 0 0
+ 0.535 0 1 cbr 500 ------- 1 0.0 2.0 7 7
- 0.535 0 1 cbr 500 ------- 1 0.0 2.0 7 7
r 0.537 0 1 cbr 500 ------- 1 0.0 2.0 5 5
+ 0.537 1 2 cbr 500 ------- 1 0.0 2.0 5 5
- 0.537 1 2 cbr 500 ------- 1 0.0 2.0 5 5
r 0.539 1 2 cbr 500 ------- 1 0.0 2.0 1 1
+ 0.54 0 1 cbr 500 ------- 1 0.0 2.0 8 8
- 0.54 0 1 cbr 500 ------- 1 0.0 2.0 8 8
r 0.542 0 1 cbr 500 ------- 1 0.0 2.0 6 6
+ 0.542 1 2 cbr 500 ------- 1 0.0 2.0 6 6
- 0.542 1 2 cbr 500 ------- 1 0.0 2.0 6 6
r 0.544 1 2 cbr 500 ------- 1 0.0 2.0 2 2
+ 0.545 0 1 cbr 500 ------- 1 0.0 2.0 9 9
- 0.545 0 1 cbr 500 ------- 1 0.0 2.0 9 9
r 0.547 0 1 cbr 500 ------- 1 0.0 2.0 7 7
+ 0.547 1 2 cbr 500 ------- 1 0.0 2.0 7 7
- 0.547 1 2 cbr 500 ------- 1 0.0 2.0 7 7
r 0.549 1 2 cbr 500 ------- 1 0.0 2.0 3 3
+ 0.55 0 1 cbr 500 ------- 1 0.0 2.0 10 10
- 0.55 0 1 cbr 500 ------- 1 0.0 2.0 10 10
r 0.552 0 1 cbr 500 ------- 1 0.0 2.0 8 8
+ 0.552 1 2 cbr 500 ------- 1 0.0 2.0 8 8
- 0.552 1 2 cbr 500 ------- 1 0.0 2.0 8 8
r 0.554 1 2 cbr 500 ------- 1 0.0 2.0 4 4
+ 0.555 0 1 cbr 500 ------- 1 0.0 2.0 11 11
- 0.555 0 1 cbr 500 ------- 1 0.0 2.0 11 11
r 0.557 0 1 cbr 500 ------- 1 0.0 2.0 9 9
+ 0.557 1 2 cbr 500 ------- 1 0.0 2.0 9 9
- 0.557 1 2 cbr 500 ------- 1 0.0 2.0 9 9
r 0.559 1 2 cbr 500 ------- 1 0.0 2.0 5 5
+ 0.56 0 1 cbr 500 ------- 1 0.0 2.0 12 12
- 0.56 0 1 cbr 500 ------- 1 0.0 2.0 12 12
r 0.562 0 1 cbr 500 ------- 1 0.0 2.0 10 10
+ 0.562 1 2 cbr 500 ------- 1 0.0 2.0 10 10
- 0.562 1 2 cbr 500 ------- 1 0.0 2.0 10 10
r 0.564 1 2 cbr 500 ------- 1 0.0 2.0 6 6
+ 0.565 0 1 cbr 500 ------- 1 0.0 2.0 13 13
- 0.565 0 1 cbr 500 ------- 1 0.0 2.0 13 13
r 0.567 0 1 cbr 500 ------- 1 0.0 2.0 11 11
+ 0.567 1 2 cbr 500 ------- 1 0.0 2.0 11 11
- 0.567 1 2 cbr 500 ------- 1 0.0 2.0 11 11
r 0.569 1 2 cbr 500 ------- 1 0.0 2.0 7 7
+ 0.57 0 1 cbr 500 ------- 1 0.0 2.0 14 14
- 0.57 0 1 cbr 500 ------- 1 0.0 2.0 14 14
r 0.572 0 1 cbr 500 ------- 1 0.0 2.0 12 12
+ 0.572 1 2 cbr 500 ------- 1 0.0 2.0 12 12
- 0.572 1 2 cbr 500 ------- 1 0.0 2.0 12 12
r 0.574 1 2 cbr 500 ------- 1 0.0 2.0 8 8
+ 0.575 0 1 cbr 500 ------- 1 0.0 2.0 15 15
- 0.575 0 1 cbr 500 ------- 1 0.0 2.0 15 15
r 0.577 0 1 cbr 500 ------- 1 0.0 2.0 13 13
+ 0.577 1 2 cbr 500 ------- 1 0.0 2.0 13 13
- 0.577 1 2 cbr 500 ------- 1 0.0 2.0 13 13
r 0.579 1 2 cbr 500 ------- 1 0.0 2.0 9 9
+ 0.58 0 1 cbr 500 ------- 1 0.0 2.0 16 16
- 0.58 0 1 cbr 500 ------- 1 0.0 2.0 16 16
r 0.582 0 1 cbr 500 ------- 1 0.0 2.0 14 14
+ 0.582 1 2 cbr 500 ------- 1 0.0 2.0 14 14
- 0.582 1 2 cbr 500 ------- 1 0.0 2.0 14 14
r 0.584 1 2 cbr 500 ------- 1 0.0 2.0 10 10
+ 0.585 0 1 cbr 500 ------- 1 0.0 2.0 17 17
- 0.585 0 1 cbr 500 ------- 1 0.0 2.0 17 17
r 0.587 0 1 cbr 500 ------- 1 0.0 2.0 15 15
+ 0.587 1 2 cbr 500 ------- 1 0.0 2.0 15 15
- 0.587 1 2 cbr 500 ------- 1 0.0 2.0 15 15
r 0.589 1 2 cbr 500 ------- 1 0.0 2.0 11 11
+ 0.59 0 1 cbr 500 ------- 1 0.0 2.0 18 18
- 0.59 0 1 cbr 500 ------- 1 0.0 2.0 18 18
r 0.592 0 1 cbr 500 ------- 1 0.0 2.0 16 16
+ 0.592 1 2 cbr 500 ------- 1 0.0 2.0 16 16
- 0.592 1 2 cbr 500 ------- 1 0.0 2.0 16 16
r 0.594 1 2 cbr 500 ------- 1 0.0 2.0 12 12
+ 0.595 0 1 cbr 500 ------- 1 0.0 2.0 19 19
- 0.595 0 1 cbr 500 ------- 1 0.0 2.0 19 19
r 0.597 0 1 cbr 500 ------- 1 0.0 2.0 17 17
+ 0.597 1 2 cbr 500 ------- 1 0.0 2.0 17 17
- 0.597 1 2 cbr 500 ------- 1 0.0 2.0 17 17
r 0.599 1 2 cbr 500 ------- 1 0.0 2.0 13 13
+ 0.6 0 1 cbr 500 ------- 1 0.0 2.0 20 20
- 0.6 0 1 cbr 500 ------- 1 0.0 2.0 20 20
r 0.602 0 1 cbr 500 ------- 1 0.0 2.0 18 18
+ 0.602 1 2 cbr 500 ------- 1 0.0 2.0 18 18
- 0.602 1 2 cbr 500 ------- 1 0.0 2.0 18 18
r 0.604 1 2 cbr 500 ------- 1 0.0 2.0 14 14
+ 0.605 0 1 cbr 500 ------- 1 0.0 2.0 21 21
- 0.605 0 1 cbr 500 ------- 1 0.0 2.0 21 21
r 0.607 0 1 cbr 500 ------- 1 0.0 2.0 19 19
+ 0.607 1 2 cbr 500 ------- 1 0.0 2.0 19 19
- 0.607 1 2 cbr 500 ------- 1 0.0 2.0 19 19
r 0.609 1 2 cbr 500 ------- 1 0.0 2.0 15 15
+ 0.61 0 1 cbr 500 ------- 1 0.0 2.0 22 22
- 0.61 0 1 cbr 500 ------- 1 0.0 2.0 22 22
r 0.612 0 1 cbr 500 ------- 1 0.0 2.0 20 20
+ 0.612 1 2 cbr 500 ------- 1 0.0 2.0 20 20
- 0.612 1 2 cbr 500 ------- 1 0.0 2.0 20 20
r 0.614 1 2 cbr 500 ------- 1 0.0 2.0 16 16
+ 0.615 0 1 cbr 500 ------- 1 0.0 2.0 23 23
- 0.615 0 1 cbr 500 ------- 1 0.0 2.0 23 23
r 0.617 0 1 cbr 500 ------- 1 0.0 2.0 21 21
+ 0.617 1 2 cbr 500 ------- 1 0.0 2.0 21 21
- 0.617 1 2 cbr 500 ------- 1 0.0 2.0 21 21
r 0.619 1 2 cbr 500 ------- 1 0.0 2.0 17 17
+ 0.62 0 1 cbr 500 ------- 1 0.0 2.0 24 24
- 0.62 0 1 cbr 500 ------- 1 0.0 2.0 24 24
r 0.622 0 1 cbr 500 ------- 1 0.0 2.0 22 22
+ 0.622 1 2 cbr 500 ------- 1 0.0 2.0 22 22
- 0.622 1 2 cbr 500 ------- 1 0.0 2.0 22 22
r 0.624 1 2 cbr 500 ------- 1 0.0 2.0 18 18
+ 0.625 0 1 cbr 500 ------- 1 0.0 2.0 25 25
- 0.625 0 1 cbr 500 ------- 1 0.0 2.0 25 25
r 0.627 0 1 cbr 500 ------- 1 0.0 2.0 23 23
+ 0.627 1 2 cbr 500 ------- 1 0.0 2.0 23 23
- 0.627 1 2 cbr 500 ------- 1 0.0 2.0 23 23
r 0.629 1 2 cbr 500 ------- 1 0.0 2.0 19 19
+ 0.63 0 1 cbr 500 ------- 1 0.0 2.0 26 26
- 0.63 0 1 cbr 500 ------- 1 0.0 2.0 26 26
r 0.632 0 1 cbr 500 ------- 1 0.0 2.0 24 24
+ 0.632 1 2 cbr 500 ------- 1 0.0 2.0 24 24
- 0.632 1 2 cbr 500 ------- 1 0.0 2.0 24 24
r 0.634 1 2 cbr 500 ------- 1 0.0 2.0 20 20
+ 0.635 0 1 cbr 500 ------- 1 0.0 2.0 27 27
- 0.635 0 1 cbr 500 ------- 1 0.0 2.0 27 27
r 0.637 0 1 cbr 500 ------- 1 0.0 2.0 25 25
+ 0.637 1 2 cbr 500 ------- 1 0.0 2.0 25 25
- 0.637 1 2 cbr 500 ------- 1 0.0 2.0 25 25
r 0.639 1 2 cbr 500 ------- 1 0.0 2.0 21 21
+ 0.64 0 1 cbr 500 ------- 1 0.0 2.0 28 28
- 0.64 0 1 cbr 500 ------- 1 0.0 2.0 28 28
r 0.642 0 1 cbr 500 ------- 1 0.0 2.0 26 26
+ 0.642 1 2 cbr 500 ------- 1 0.0 2.0 26 26
- 0.642 1 2 cbr 500 ------- 1 0.0 2.0 26 26
r 0.644 1 2 cbr 500 ------- 1 0.0 2.0 22 22
+ 0.645 0 1 cbr 500 ------- 1 0.0 2.0 29 29
- 0.645 0 1 cbr 500 ------- 1 0.0 2.0 29 29
r 0.647 0 1 cbr 500 ------- 1 0.0 2.0 27 27
+ 0.647 1 2 cbr 500 ------- 1 0.0 2.0 27 27
- 0.647 1 2 cbr 500 ------- 1 0.0 2.0 27 27
r 0.649 1 2 cbr 500 ------- 1 0.0 2.0 23 23
+ 0.65 0 1 cbr 500 ------- 1 0.0 2.0 30 30
- 0.65 0 1 cbr 500 ------- 1 0.0 2.0 30 30
r 0.652 0 1 cbr 500 ------- 1 0.0 2.0 28 28
+ 0.652 1 2 cbr 500 ------- 1 0.0 2.0 28 28
- 0.652 1 2 cbr 500 ------- 1 0.0 2.0 28 28
r 0.654 1 2 cbr 500 ------- 1 0.0 2.0 24 24
+ 0.655 0 1 cbr 500 ------- 1 0.0 2.0 31 31
- 0.655 0 1 cbr 500 ------- 1 0.0 2.0 31 31
r 0.657 0 1 cbr 500 ------- 1 0.0 2.0 29 29
+ 0.657 1 2 cbr 500 ------- 1 0.0 2.0 29 29
- 0.657 1 2 cbr 500 ------- 1 0.0 2.0 29 29
r 0.659 1 2 cbr 500 ------- 1 0.0 2.0 25 25
+ 0.66 0 1 cbr 500 ------- 1 0.0 2.0 32 32
- 0.66 0 1 cbr 500 ------- 1 0.0 2.0 32 32
r 0.662 0 1 cbr 500 ------- 1 0.0 2.0 30 30
+ 0.662 1 2 cbr 500 ------- 1 0.0 2.0 30 30
- 0.662 1 2 cbr 500 ------- 1 0.0 2.0 30 30
r 0.664 1 2 cbr 500 ------- 1 0.0 2.0 26 26
+ 0.665 0 1 cbr 500 ------- 1 0.0 2.0 33 33
- 0.665 0 1 cbr 500 ------- 1 0.0 2.0 33 33
r 0.667 0 1 cbr 500 ------- 1 0.0 2.0 31 31
+ 0.667 1 2 cbr 500 ------- 1 0.0 2.0 31 31
- 0.667 1 2 cbr 500 ------- 1 0.0 2.0 31 31
r 0.669 1 2 cbr 500 ------- 1 0.0 2.0 27 27
+ 0.67 0 1 cbr 500 ------- 1 0.0 2.0 34 34
- 0.67 0 1 cbr 500 ------- 1 0.0 2.0 34 34
r 0.672 0 1 cbr 500 ------- 1 0.0 2.0 32 32
+ 0.672 1 2 cbr 500 ------- 1 0.0 2.0 32 32
- 0.672 1 2 cbr 500 ------- 1 0.0 2.0 32 32
r 0.674 1 2 cbr 500 ------- 1 0.0 2.0 28 28
+ 0.675 0 1 cbr 500 ------- 1 0.0 2.0 35 35
- 0.675 0 1 cbr 500 ------- 1 0.0 2.0 35 35
r 0.677 0 1 cbr 500 ------- 1 0.0 2.0 33 33
+ 0.677 1 2 cbr 500 ------- 1 0.0 2.0 33 33
- 0.677 1 2 cbr 500 ------- 1 0.0 2.0 33 33
r 0.679 1 2 cbr 500 ------- 1 0.0 2.0 29 29
+ 0.68 0 1 cbr 500 ------- 1 0.0 2.0 36 36
- 0.68 0 1 cbr 500 ------- 1 0.0 2.0 36 36
r 0.682 0 1 cbr 500 ------- 1 0.0 2.0 34 34
+ 0.682 1 2 cbr 500 ------- 1 0.0 2.0 34 34
- 0.682 1 2 cbr 500 ------- 1 0.0 2.0 34 34
r 0.684 1 2 cbr 500 ------- 1 0.0 2.0 30 30
+ 0.685 0 1 cbr 500 ------- 1 0.0 2.0 37 37
- 0.685 0 1 cbr 500 ------- 1 0.0 2.0 37 37
r 0.687 0 1 cbr 500 ------- 1 0.0 2.0 35 35
+ 0.687 1 2 cbr 500 ------- 1 0.0 2.0 35 35
- 0.687 1 2 cbr 500 ------- 1 0.0 2.0 35 35
r 0.689 1 2 cbr 500 ------- 1 0.0 2.0 31 31
+ 0.69 0 1 cbr 500 ------- 1 0.0 2.0 38 38
- 0.69 0 1 cbr 500 ------- 1 0.0 2.0 38 38
r 0.692 0 1 cbr 500 ------- 1 0.0 2.0 36 36
+ 0.692 1 2 cbr 500 ------- 1 0.0 2.0 36 36
- 0.692 1 2 cbr 500 ------- 1 0.0 2.0 36 36
r 0.694 1 2 cbr 500 ------- 1 0.0 2.0 32 32
+ 0.695 0 1 cbr 500 ------- 1 0.0 2.0 39 39
- 0.695 0 1 cbr 500 ------- 1 0.0 2.0 39 39
r 0.697 0 1 cbr 500 ------- 1 0.0 2.0 37 37
+ 0.697 1 2 cbr 500 ------- 1 0.0 2.0 37 37
- 0.697 1 2 cbr 500 ------- 1 0.0 2.0 37 37
r 0.699 1 2 cbr 500 ------- 1 0.0 2.0 33 33
+ 0.7 0 1 cbr 500 ------- 1 0.0 2.0 40 40
- 0.7 0 1 cbr 500 ------- 1 0.0 2.0 40 40
r 0.702 0 1 cbr 500 ------- 1 0.0 2.0 38 38
+ 0.702 1 2 cbr 500 ------- 1 0.0 2.0 38 38
- 0.702 1 2 cbr 500 ------- 1 0.0 2.0 38 38
r 0.704 1 2 cbr 500 ------- 1 0.0 2.0 34 34
+ 0.705 0 1 cbr 500 ------- 1 0.0 2.0 41 41
- 0.705 0 1 cbr 500 ------- 1 0.0 2.0 41 41
r 0.707 0 1 cbr 500 ------- 1 0.0 2.0 39 39
+ 0.707 1 2 cbr 500 ------- 1 0.0 2.0 39 39
- 0.707 1 2 cbr 500 ------- 1 0.0 2.0 39 39
r 0.709 1 2 cbr 500 ------- 1 0.0 2.0 35 35
+ 0.71 0 1 cbr 500 ------- 1 0.0 2.0 42 42
- 0.71 0 1 cbr 500 ------- 1 0.0 2.0 42 42
r 0.712 0 1 cbr 500 ------- 1 0.0 2.0 40 40
+ 0.712 1 2 cbr 500 ------- 1 0.0 2.0 40 40
- 0.712 1 2 cbr 500 ------- 1 0.0 2.0 40 40
r 0.714 1 2 cbr 500 ------- 1 0.0 2.0 36 36
+ 0.715 0 1 cbr 500 ------- 1 0.0 2.0 43 43
- 0.715 0 1 cbr 500 ------- 1 0.0 2.0 43 43
r 0.717 0 1 cbr 500 ------- 1 0.0 2.0 41 41
+ 0.717 1 2 cbr 500 ------- 1 0.0 2.0 41 41
- 0.717 1 2 cbr 500 ------- 1 0.0 2.0 41 41
r 0.719 1 2 cbr 500 ------- 1 0.0 2.0 37 37
+ 0.72 0 1 cbr 500 ------- 1 0.0 2.0 44 44
- 0.72 0 1 cbr 500 ------- 1 0.0 2.0 44 44
r 0.722 0 1 cbr 500 ------- 1 0.0 2.0 42 42
+ 0.722 1 2 cbr 500 ------- 1 0.0 2.0 42 42
- 0.722 1 2 cbr 500 ------- 1 0.0 2.0 42 42
r 0.724 1 2 cbr 500 ------- 1 0.0 2.0 38 38
+ 0.725 0 1 cbr 500 ------- 1 0.0 2.0 45 45
- 0.725 0 1 cbr 500 ------- 1 0.0 2.0 45 45
r 0.727 0 1 cbr 500 ------- 1 0.0 2.0 43 43
+ 0.727 1 2 cbr 500 ------- 1 0.0 2.0 43 43
- 0.727 1 2 cbr 500 ------- 1 0.0 2.0 43 43
r 0.729 1 2 cbr 500 ------- 1 0.0 2.0 39 39
+ 0.73 0 1 cbr 500 ------- 1 0.0 2.0 46 46
- 0.73 0 1 cbr 500 ------- 1 0.0 2.0 46 46
r 0.732 0 1 cbr 500 ------- 1 0.0 2.0 44 44
+ 0.732 1 2 cbr 500 ------- 1 0.0 2.0 44 44
- 0.732 1 2 cbr 500 ------- 1 0.0 2.0 44 44
r 0.734 1 2 cbr 500 ------- 1 0.0 2.0 40 40
+ 0.735 0 1 cbr 500 ------- 1 0.0 2.0 47 47
- 0.735 0 1 cbr 500 ------- 1 0.0 2.0 47 47
r 0.737 0 1 cbr 500 ------- 1 0.0 2.0 45 45
+ 0.737 1 2 cbr 500 ------- 1 0.0 2.0 45 45
- 0.737 1 2 cbr 500 ------- 1 0.0 2.0 45 45
r 0.739 1 2 cbr 500 ------- 1 0.0 2.0 41 41
+ 0.74 0 1 cbr 500 ------- 1 0.0 2.0 48 48
- 0.74 0 1 cbr 500 ------- 1 0.0 2.0 48 48
r 0.742 0 1 cbr 500 ------- 1 0.0 2.0 46 46
+ 0.742 1 2 cbr 500 ------- 1 0.0 2.0 46 46
- 0.742 1 2 cbr 500 ------- 1 0.0 2.0 46 46
r 0.744 1 2 cbr 500 ------- 1 0.0 2.0 42 42
+ 0.745 0 1 cbr 500 ------- 1 0.0 2.0 49 49
- 0.745 0 1 cbr 500 ------- 1 0.0 2.0 49 49
r 0.747 0 1 cbr 500 ------- 1 0.0 2.0 47 47
+ 0.747 1 2 cbr 500 ------- 1 0.0 2.0 47 47
- 0.747 1 2 cbr 500 ------- 1 0.0 2.0 47 47
r 0.749 1 2 cbr 500 ------- 1 0.0 2.0 43 43
+ 0.75 0 1 cbr 500 ------- 1 0.0 2.0 50 50
- 0.75 0 1 cbr 500 ------- 1 0.0 2.0 50 50
r 0.752 0 1 cbr 500 ------- 1 0.0 2.0 48 48
+ 0.752 1 2 cbr 500 ------- 1 0.0 2.0 48 48
- 0.752 1 2 cbr 500 ------- 1 0.0 2.0 48 48
r 0.754 1 2 cbr 500 ------- 1 0.0 2.0 44 44
+ 0.755 0 1 cbr 500 ------- 1 0.0 2.0 51 51
- 0.755 0 1 cbr 500 ------- 1 0.0 2.0 51 51
r 0.757 0 1 cbr 500 ------- 1 0.0 2.0 49 49
+ 0.757 1 2 cbr 500 ------- 1 0.0 2.0 49 49
- 0.757 1 2 cbr 500 ------- 1 0.0 2.0 49 49
r 0.759 1 2 cbr 500 ------- 1 0.0 2.0 45 45
+ 0.76 0 1 cbr 500 ------- 1 0.0 2.0 52 52
- 0.76 0 1 cbr 500 ------- 1 0.0 2.0 52 52
r 0.762 0 1 cbr 500 ------- 1 0.0 2.0 50 50
+ 0.762 1 2 cbr 500 ------- 1 0.0 2.0 50 50
- 0.762 1 2 cbr 500 ------- 1 0.0 2.0 50 50
r 0.764 1 2 cbr 500 ------- 1 0.0 2.0 46 46
+ 0.765 0 1 cbr 500 ------- 1 0.0 2.0 53 53
- 0.765 0 1 cbr 500 ------- 1 0.0 2.0 53 53
r 0.767 0 1 cbr 500 ------- 1 0.0 2.0 51 51
+ 0.767 1 2 cbr 500 ------- 1 0.0 2.0 51 51
- 0.767 1 2 cbr 500 ------- 1 0.0 2.0 51 51
r 0.769 1 2 cbr 500 ------- 1 0.0 2.0 47 47
+ 0.77 0 1 cbr 500 ------- 1 0.0 2.0 54 54
- 0.77 0 1 cbr 500 ------- 1 0.0 2.0 54 54
r 0.772 0 1 cbr 500 ------- 1 0.0 2.0 52 52
+ 0.772 1 2 cbr 500 ------- 1 0.0 2.0 52 52
- 0.772 1 2 cbr 500 ------- 1 0.0 2.0 52 52
r 0.774 1 2 cbr 500 ------- 1 0.0 2.0 48 48
+ 0.775 0 1 cbr 500 ------- 1 0.0 2.0 55 55
- 0.775 0 1 cbr 500 ------- 1 0.0 2.0 55 55
r 0.777 0 1 cbr 500 ------- 1 0.0 2.0 53 53
+ 0.777 1 2 cbr 500 ------- 1 0.0 2.0 53 53
- 0.777 1 2 cbr 500 ------- 1 0.0 2.0 53 53
r 0.779 1 2 cbr 500 ------- 1 0.0 2.0 49 49
+ 0.78 0 1 cbr 500 ------- 1 0.0 2.0 56 56
- 0.78 0 1 cbr 500 ------- 1 0.0 2.0 56 56
r 0.782 0 1 cbr 500 ------- 1 0.0 2.0 54 54
+ 0.782 1 2 cbr 500 ------- 1 0.0 2.0 54 54
- 0.782 1 2 cbr 500 ------- 1 0.0 2.0 54 54
r 0.784 1 2 cbr 500 ------- 1 0.0 2.0 50 50
+ 0.785 0 1 cbr 500 ------- 1 0.0 2.0 57 57
- 0.785 0 1 cbr 500 ------- 1 0.0 2.0 57 57
r 0.787 0 1 cbr 500 ------- 1 0.0 2.0 55 55
+ 0.787 1 2 cbr 500 ------- 1 0.0 2.0 55 55
- 0.787 1 2 cbr 500 ------- 1 0.0 2.0 55 55
r 0.789 1 2 cbr 500 ------- 1 0.0 2.0 51 51
+ 0.79 0 1 cbr 500 ------- 1 0.0 2.0 58 58
- 0.79 0 1 cbr 500 ------- 1 0.0 2.0 58 58
r 0.792 0 1 cbr 500 ------- 1 0.0 2.0 56 56
+ 0.792 1 2 cbr 500 ------- 1 0.0 2.0 56 56
- 0.792 1 2 cbr 500 ------- 1 0.0 2.0 56 56
r 0.794 1 2 cbr 500 ------- 1 0.0 2.0 52 52
+ 0.795 0 1 cbr 500 ------- 1 0.0 2.0 59 59
- 0.795 0 1 cbr 500 ------- 1 0.0 2.0 59 59
r 0.797 0 1 cbr 500 ------- 1 0.0 2.0 57 57
+ 0.797 1 2 cbr 500 ------- 1 0.0 2.0 57 57
- 0.797 1 2 cbr 500 ------- 1 0.0 2.0 57 57
r 0.799 1 2 cbr 500 ------- 1 0.0 2.0 53 53
+ 0.8 0 1 cbr 500 ------- 1 0.0 2.0 60 60
- 0.8 0 1 cbr 500 ------- 1 0.0 2.0 60 60
r 0.802 0 1 cbr 500 ------- 1 0.0 2.0 58 58
+ 0.802 1 2 cbr 500 ------- 1 0.0 2.0 58 58
- 0.802 1 2 cbr 500 ------- 1 0.0 2.0 58 58
r 0.804 1 2 cbr 500 ------- 1 0.0 2.0 54 54
+ 0.805 0 1 cbr 500 ------- 1 0.0 2.0 61 61
- 0.805 0 1 cbr 500 ------- 1 0.0 2.0 61 61
r 0.807 0 1 cbr 500 ------- 1 0.0 2.0 59 59
+ 0.807 1 2 cbr 500 ------- 1 0.0 2.0 59 59
- 0.807 1 2 cbr 500 ------- 1 0.0 2.0 59 59
r 0.809 1 2 cbr 500 ------- 1 0.0 2.0 55 55
+ 0.81 0 1 cbr 500 ------- 1 0.0 2.0 62 62
- 0.81 0 1 cbr 500 ------- 1 0.0 2.0 62 62
r 0.812 0 1 cbr 500 ------- 1 0.0 2.0 60 60
+ 0.812 1 2 cbr 500 ------- 1 0.0 2.0 60 60
- 0.812 1 2 cbr 500 ------- 1 0.0 2.0 60 60
r 0.814 1 2 cbr 500 ------- 1 0.0 2.0 56 56
+ 0.815 0 1 cbr 500 ------- 1 0.0 2.0 63 63
- 0.815 0 1 cbr 500 ------- 1 0.0 2.0 63 63
r 0.817 0 1 cbr 500 ------- 1 0.0 2.0 61 61
+ 0.817 1 2 cbr 500 ------- 1 0.0 2.0 61 61
- 0.817 1 2 cbr 500 ------- 1 0.0 2.0 61 61
r 0.819 1 2 cbr 500 ------- 1 0.0 2.0 57 57
+ 0.82 0 1 cbr 500 ------- 1 0.0 2.0 64 64
- 0.82 0 1 cbr 500 ------- 1 0.0 2.0 64 64
r 0.822 0 1 cbr 500 ------- 1 0.0 2.0 62 62
+ 0.822 1 2 cbr 500 ------- 1 0.0 2.0 62 62
- 0.822 1 2 cbr 500 ------- 1 0.0 2.0 62 62
r 0.824 1 2 cbr 500 ------- 1 0.0 2.0 58 58
+ 0.825 0 1 cbr 500 ------- 1 0.0 2.0 65 65
- 0.825 0 1 cbr 500 ------- 1 0.0 2.0 65 65
r 0.827 0 1 cbr 500 ------- 1 0.0 2.0 63 63
+ 0.827 1 2 cbr 500 ------- 1 0.0 2.0 63 63
- 0.827 1 2 cbr 500 ------- 1 0.0 2.0 63 63
r 0.829 1 2 cbr 500 ------- 1 0.0 2.0 59 59
+ 0.83 0 1 cbr 500 ------- 1 0.0 2.0 66 66
- 0.83 0 1 cbr 500 ------- 1 0.0 2.0 66 66
r 0.832 0 1 cbr 500 ------- 1 0.0 2.0 64 64
+ 0.832 1 2 cbr 500 ------- 1 0.0 2.0 64 64
- 0.832 1 2 cbr 500 ------- 1 0.0 2.0 64 64
r 0.834 1 2 cbr 500 ------- 1 0.0 2.0 60 60
+ 0.835 0 1 cbr 500 ------- 1 0.0 2.0 67 67
- 0.835 0 1 cbr 500 ------- 1 0.0 2.0 67 67
r 0.837 0 1 cbr 500 ------- 1 0.0 2.0 65 65
+ 0.837 1 2 cbr 500 ------- 1 0.0 2.0 65 65
- 0.837 1 2 cbr 500 ------- 1 0.0 2.0 65 65
r 0.839 1 2 cbr 500 ------- 1 0.0 2.0 61 61
+ 0.84 0 1 cbr 500 ------- 1 0.0 2.0 68 68
- 0.84 0 1 cbr 500 ------- 1 0.0 2.0 68 68
r 0.842 0 1 cbr 500 ------- 1 0.0 2.0 66 66
+ 0.842 1 2 cbr 500 ------- 1 0.0 2.0 66 66
- 0.842 1 2 cbr 500 ------- 1 0.0 2.0 66 66
r 0.844 1 2 cbr 500 ------- 1 0.0 2.0 62 62
+ 0.845 0 1 cbr 500 ------- 1 0.0 2.0 69 69
- 0.845 0 1 cbr 500 ------- 1 0.0 2.0 69 69
r 0.847 0 1 cbr 500 ------- 1 0.0 2.0 67 67
+ 0.847 1 2 cbr 500 ------- 1 0.0 2.0 67 67
- 0.847 1 2 cbr 500 ------- 1 0.0 2.0 67 67
r 0.849 1 2 cbr 500 ------- 1 0.0 2.0 63 63
+ 0.85 0 1 cbr 500 ------- 1 0.0 2.0 70 70
- 0.85 0 1 cbr 500 ------- 1 0.0 2.0 70 70
r 0.852 0 1 cbr 500 ------- 1 0.0 2.0 68 68
+ 0.852 1 2 cbr 500 ------- 1 0.0 2.0 68 68
- 0.852 1 2 cbr 500 ------- 1 0.0 2.0 68 68
r 0.854 1 2 cbr 500 ------- 1 0.0 2.0 64 64
+ 0.855 0 1 cbr 500 ------- 1 0.0 2.0 71 71
- 0.855 0 1 cbr 500 ------- 1 0.0 2.0 71 71
r 0.857 0 1 cbr 500 ------- 1 0.0 2.0 69 69
+ 0.857 1 2 cbr 500 ------- 1 0.0 2.0 69 69
- 0.857 1 2 cbr 500 ------- 1 0.0 2.0 69 69
r 0.859 1 2 cbr 500 ------- 1 0.0 2.0 65 65
+ 0.86 0 1 cbr 500 ------- 1 0.0 2.0 72 72
- 0.86 0 1 cbr 500 ------- 1 0.0 2.0 72 72
r 0.862 0 1 cbr 500 ------- 1 0.0 2.0 70 70
+ 0.862 1 2 cbr 500 ------- 1 0.0 2.0 70 70
- 0.862 1 2 cbr 500 ------- 1 0.0 2.0 70 70
r 0.864 1 2 cbr 500 ------- 1 0.0 2.0 66 66
+ 0.865 0 1 cbr 500 ------- 1 0.0 2.0 73 73
- 0.865 0 1 cbr 500 ------- 1 0.0 2.0 73 73
r 0.867 0 1 cbr 500 ------- 1 0.0 2.0 71 71
+ 0.867 1 2 cbr 500 ------- 1 0.0 2.0 71 71
- 0.867 1 2 cbr 500 ------- 1 0.0 2.0 71 71
r 0.869 1 2 cbr 500 ------- 1 0.0 2.0 67 67
+ 0.87 0 1 cbr 500 ------- 1 0.0 2.0 74 74
- 0.87 0 1 cbr 500 ------- 1 0.0 2.0 74 74
r 0.872 0 1 cbr 500 ------- 1 0.0 2.0 72 72
+ 0.872 1 2 cbr 500 ------- 1 0.0 2.0 72 72
- 0.872 1 2 cbr 500 ------- 1 0.0 2.0 72 72
r 0.874 1 2 cbr 500 ------- 1 0.0 2.0 68 68
+ 0.875 0 1 cbr 500 ------- 1 0.0 2.0 75 75
- 0.875 0 1 cbr 500 ------- 1 0.0 2.0 75 75
r 0.877 0 1 cbr 500 ------- 1 0.0 2.0 73 73
+ 0.877 1 2 cbr 500 ------- 1 0.0 2.0 73 73
- 0.877 1 2 cbr 500 ------- 1 0.0 2.0 73 73
r 0.879 1 2 cbr 500 ------- 1 0.0 2.0 69 69
+ 0.88 0 1 cbr 500 ------- 1 0.0 2.0 76 76
- 0.88 0 1 cbr 500 ------- 1 0.0 2.0 76 76
r 0.882 0 1 cbr 500 ------- 1 0.0 2.0 74 74
+ 0.882 1 2 cbr 500 ------- 1 0.0 2.0 74 74
- 0.882 1 2 cbr 500 ------- 1 0.0 2.0 74 74
r 0.884 1 2 cbr 500 ------- 1 0.0 2.0 70 70
+ 0.885 0 1 cbr 500 ------- 1 0.0 2.0 77 77
- 0.885 0 1 cbr 500 ------- 1 0.0 2.0 77 77
r 0.887 0 1 cbr 500 ------- 1 0.0 2.0 75 75
+ 0.887 1 2 cbr 500 ------- 1 0.0 2.0 75 75
- 0.887 1 2 cbr 500 ------- 1 0.0 2.0 75 75
r 0.889 1 2 cbr 500 ------- 1 0.0 2.0 71 71
+ 0.89 0 1 cbr 500 ------- 1 0.0 2.0 78 78
- 0.89 0 1 cbr 500 ------- 1 0.0 2.0 78 78
r 0.892 0 1 cbr 500 ------- 1 0.0 2.0 76 76
+ 0.892 1 2 cbr 500 ------- 1 0.0 2.0 76 76
- 0.892 1 2 cbr 500 ------- 1 0.0 2.0 76 76
r 0.894 1 2 cbr 500 ------- 1 0.0 2.0 72 72
+ 0.895 0 1 cbr 500 ------- 1 0.0 2.0 79 79
- 0.895 0 1 cbr 500 ------- 1 0.0 2.0 79 79
r 0.897 0 1 cbr 500 ------- 1 0.0 2.0 77 77
+ 0.897 1 2 cbr 500 ------- 1 0.0 2.0 77 77
- 0.897 1 2 cbr 500 ------- 1 0.0 2.0 77 77
r 0.899 1 2 cbr 500 ------- 1 0.0 2.0 73 73
+ 0.9 0 1 cbr 500 ------- 1 0.0 2.0 80 80
- 0.9 0 1 cbr 500 ------- 1 0.0 2.0 80 80
r 0.902 0 1 cbr 500 ------- 1 0.0 2.0 78 78
+ 0.902 1 2 cbr 500 ------- 1 0.0 2.0 78 78
- 0.902 1 2 cbr 500 ------- 1 0.0 2.0 78 78
r 0.904 1 2 cbr 500 ------- 1 0.0 2.0 74 74
+ 0.905 0 1 cbr 500 ------- 1 0.0 2.0 81 81
- 0.905 0 1 cbr 500 ------- 1 0.0 2.0 81 81
r 0.907 0 1 cbr 500 ------- 1 0.0 2.0 79 79
+ 0.907 1 2 cbr 500 ------- 1 0.0 2.0 79 79
- 0.907 1 2 cbr 500 ------- 1 0.0 2.0 79 79
r 0.909 1 2 cbr 500 ------- 1 0.0 2.0 75 75
+ 0.91 0 1 cbr 500 ------- 1 0.0 2.0 82 82
- 0.91 0 1 cbr 500 ------- 1 0.0 2.0 82 82
r 0.912 0 1 cbr 500 ------- 1 0.0 2.0 80 80
+ 0.912 1 2 cbr 500 ------- 1 0.0 2.0 80 80
- 0.912 1 2 cbr 500 ------- 1 0.0 2.0 80 80
r 0.914 1 2 cbr 500 ------- 1 0.0 2.0 76 76
+ 0.915 0 1 cbr 500 ------- 1 0.0 2.0 83 83
- 0.915 0 1 cbr 500 ------- 1 0.0 2.0 83 83
r 0.917 0 1 cbr 500 ------- 1 0.0 2.0 81 81
+ 0.917 1 2 cbr 500 ------- 1 0.0 2.0 81 81
- 0.917 1 2 cbr 500 ------- 1 0.0 2.0 81 81
r 0.919 1 2 cbr 500 ------- 1 0.0 2.0 77 77
+ 0.92 0 1 cbr 500 ------- 1 0.0 2.0 84 84
- 0.92 0 1 cbr 500 ------- 1 0.0 2.0 84 84
r 0.922 0 1 cbr 500 ------- 1 0.0 2.0 82 82
+ 0.922 1 2 cbr 500 ------- 1 0.0 2.0 82 82
- 0.922 1 2 cbr 500 ------- 1 0.0 2.0 82 82
r 0.924 1 2 cbr 500 ------- 1 0.0 2.0 78 78
+ 0.925 0 1 cbr 500 ------- 1 0.0 2.0 85 85
- 0.925 0 1 cbr 500 ------- 1 0.0 2.0 85 85
r 0.927 0 1 cbr 500 ------- 1 0.0 2.0 83 83
+ 0.927 1 2 cbr 500 ------- 1 0.0 2.0 83 83
- 0.927 1 2 cbr 500 ------- 1 0.0 2.0 83 83
r 0.929 1 2 cbr 500 ------- 1 0.0 2.0 79 79
+ 0.93 0 1 cbr 500 ------- 1 0.0 2.0 86 86
- 0.93 0 1 cbr 500 ------- 1 0.0 2.0 86 86
r 0.932 0 1 cbr 500 ------- 1 0.0 2.0 84 84
+ 0.932 1 2 cbr 500 ------- 1 0.0 2.0 84 84
- 0.932 1 2 cbr 500 ------- 1 0.0 2.0 84 84
r 0.934 1 2 cbr 500 ------- 1 0.0 2.0 80 80
+ 0.935 0 1 cbr 500 ------- 1 0.0 2.0 87 87
- 0.935 0 1 cbr 500 ------- 1 0.0 2.0 87 87
r 0.937 0 1 cbr 500 ------- 1 0.0 2.0 85 85
+ 0.937 1 2 cbr 500 ------- 1 0.0 2.0 85 85
- 0.937 1 2 cbr 500 ------- 1 0.0 2.0 85 85
r 0.939 1 2 cbr 500 ------- 1 0.0 2.0 81 81
+ 0.94 0 1 cbr 500 ------- 1 0.0 2.0 88 88
- 0.94 0 1 cbr 500 ------- 1 0.0 2.0 88 88
r 0.942 0 1 cbr 500 ------- 1 0.0 2.0 86 86
+ 0.942 1 2 cbr 500 ------- 1 0.0 2.0 86 86
- 0.942 1 2 cbr 500 ------- 1 0.0 2.0 86 86
r 0.944 1 2 cbr 500 ------- 1 0.0 2.0 82 82
+ 0.945 0 1 cbr 500 ------- 1 0.0 2.0 89 89
- 0.945 0 1 cbr 500 ------- 1 0.0 2.0 89 89
r 0.947 0 1 cbr 500 ------- 1 0.0 2.0 87 87
+ 0.947 1 2 cbr 500 ------- 1 0.0 2.0 87 87
- 0.947 1 2 cbr 500 ------- 1 0.0 2.0 87 87
r 0.949 1 2 cbr 500 ------- 1 0.0 2.0 83 83
+ 0.95 0 1 cbr 500 ------- 1 0.0 2.0 90 90
- 0.95 0 1 cbr 500 ------- 1 0.0 2.0 90 90
r 0.952 0 1 cbr 500 ------- 1 0.0 2.0 88 88
+ 0.952 1 2 cbr 500 ------- 1 0.0 2.0 88 88
- 0.952 1 2 cbr 500 ------- 1 0.0 2.0 88 88
r 0.954 1 2 cbr 500 ------- 1 0.0 2.0 84 84
+ 0.955 0 1 cbr 500 ------- 1 0.0 2.0 91 91
- 0.955 0 1 cbr 500 ------- 1 0.0 2.0 91 91
r 0.957 0 1 cbr 500 ------- 1 0.0 2.0 89 89
+ 0.957 1 2 cbr 500 ------- 1 0.0 2.0 89 89
- 0.957 1 2 cbr 500 ------- 1 0.0 2.0 89 89
r 0.959 1 2 cbr 500 ------- 1 0.0 2.0 85 85
+ 0.96 0 1 cbr 500 ------- 1 0.0 2.0 92 92
- 0.96 0 1 cbr 500 ------- 1 0.0 2.0 92 92
r 0.962 0 1 cbr 500 ------- 1 0.0 2.0 90 90
+ 0.962 1 2 cbr 500 ------- 1 0.0 2.0 90 90
- 0.962 1 2 cbr 500 ------- 1 0.0 2.0 90 90
r 0.964 1 2 cbr 500 ------- 1 0.0 2.0 86 86
+ 0.965 0 1 cbr 500 ------- 1 0.0 2.0 93 93
- 0.965 0 1 cbr 500 ------- 1 0.0 2.0 93 93
r 0.967 0 1 cbr 500 ------- 1 0.0 2.0 91 91
+ 0.967 1 2 cbr 500 ------- 1 0.0 2.0 91 91
- 0.967 1 2 cbr 500 ------- 1 0.0 2.0 91 91
r 0.969 1 2 cbr 500 ------- 1 0.0 2.0 87 87
+ 0.97 0 1 cbr 500 ------- 1 0.0 2.0 94 94
- 0.97 0 1 cbr 500 ------- 1 0.0 2.0 94 94
r 0.972 0 1 cbr 500 ------- 1 0.0 2.0 92 92
+ 0.972 1 2 cbr 500 ------- 1 0.0 2.0 92 92
- 0.972 1 2 cbr 500 ------- 1 0.0 2.0 92 92
r 0.974 1 2 cbr 500 ------- 1 0.0 2.0 88 88
+ 0.975 0 1 cbr 500 ------- 1 0.0 2.0 95 95
- 0.975 0 1 cbr 500 ------- 1 0.0 2.0 95 95
r 0.977 0 1 cbr 500 ------- 1 0.0 2.0 93 93
+ 0.977 1 2 cbr 500 ------- 1 0.0 2.0 93 93
- 0.977 1 2 cbr 500 ------- 1 0.0 2.0 93 93
r 0.979 1 2 cbr 500 ------- 1 0.0 2.0 89 89
+ 0.98 0 1 cbr 500 ------- 1 0.0 2.0 96 96
- 0.98 0 1 cbr 500 ------- 1 0.0 2.0 96 96
r 0.982 0 1 cbr 500 ------- 1 0.0 2.0 94 94
+ 0.982 1 2 cbr 500 ------- 1 0.0 2.0 94 94
- 0.982 1 2 cbr 500 ------- 1 0.0 2.0 94 94
r 0.984 1 2 cbr 500 ------- 1 0.0 2.0 90 90
+ 0.985 0 1 cbr 500 ------- 1 0.0 2.0 97 97
- 0.985 0 1 cbr 500 ------- 1 0.0 2.0 97 97
r 0.987 0 1 cbr 500 ------- 1 0.0 2.0 95 95
+ 0.987 1 2 cbr 500 ------- 1 0.0 2.0 95 95
- 0.987 1 2 cbr 500 ------- 1 0.0 2.0 95 95
r 0.989 1 2 cbr 500 ------- 1 0.0 2.0 91 91
+ 0.99 0 1 cbr 500 ------- 1 0.0 2.0 98 98
- 0.99 0 1 cbr 500 ------- 1 0.0 2.0 98 98
r 0.992 0 1 cbr 500 ------- 1 0.0 2.0 96 96
+ 0.992 1 2 cbr 500 ------- 1 0.0 2.0 96 96
- 0.992 1 2 cbr 500 ------- 1 0.0 2.0 96 96
r 0.994 1 2 cbr 500 ------- 1 0.0 2.0 92 92
+ 0.995 0 1 cbr 500 ------- 1 0.0 2.0 99 99
- 0.995 0 1 cbr 500 ------- 1 0.0 2.0 99 99
r 0.997 0 1 cbr 500 ------- 1 0.0 2.0 97 97
+ 0.997 1 2 cbr 500 ------- 1 0.0 2.0 97 97
- 0.997 1 2 cbr 500 ------- 1 0.0 2.0 97 97
r 0.999 1 2 cbr 500 ------- 1 0.0 2.0 93 93
+ 1 1 2 tcp 40 ------- 2 1.0 2.1 0 100
- 1 1 2 tcp 40 ------- 2 1.0 2.1 0 100
+ 1 0 1 cbr 500 ------- 1 0.0 2.0 100 101
- 1 0 1 cbr 500 ------- 1 0.0 2.0 100 101
r 1.002 0 1 cbr 500 ------- 1 0.0 2.0 98 98
+ 1.002 1 2 cbr 500 ------- 1 0.0 2.0 98 98
- 1.002 1 2 cbr 500 ------- 1 0.0 2.0 98 98
r 1.004 1 2 cbr 500 ------- 1 0.0 2.0 94 94
+ 1.005 0 1 cbr 500 ------- 1 0.0 2.0 101 102
- 1.005 0 1 cbr 500 ------- 1 0.0 2.0 101 102
r 1.007 0 1 cbr 500 ------- 1 0.0 2.0 99 99
+ 1.007 1 2 cbr 500 ------- 1 0.0 2.0 99 99
- 1.007 1 2 cbr 500 ------- 1 0.0 2.0 99 99
r 1.009 1 2 cbr 500 ------- 1 0.0 2.0 95 95
+ 1.01 0 1 cbr 500 ------- 1 0.0 2.0 102 103
- 1.01 0 1 cbr 500 ------- 1 0.0 2.0 102 103
r 1.012 0 1 cbr 500 ------- 1 0.0 2.0 100 101
+ 1.012 1 2 cbr 500 ------- 1 0.0 2.0 100 101
- 1.012 1 2 cbr 500 ------- 1 0.0 2.0 100 101
r 1.014 1 2 cbr 500 ------- 1 0.0 2.0 96 96
+ 1.015 0 1 cbr 500 ------- 1 0.0 2.0 103 104
- 1.015 0 1 cbr 500 ------- 1 0.0 2.0 103 104
r 1.017 0 1 cbr 500 ------- 1 0.0 2.0 101 102
+ 1.017 1 2 cbr 500 ------- 1 0.0 2.0 101 102
- 1.017 1 2 cbr 500 ------- 1 0.0 2.0 101 102
r 1.019 1 2 cbr 500 ------- 1 0.0 2.0 97 97
+ 1.02 0 1 cbr 500 ------- 1 0.0 2.0 104 105
- 1.02 0 1 cbr 500 ------- 1 0.0 2.0 104 105
r 1.02016 1 2 tcp 40 ------- 2 1.0 2.1 0 100
+ 1.02016 2 1 ack 40 ------- 2 2.1 1.0 0 106
- 1.02016 2 1 ack 40 ------- 2 2.1 1.0 0 106
r 1.022 0 1 cbr 500 ------- 1 0.0 2.0 102 103
+ 1.022 1 2 cbr 500 ------- 1 0.0 2.0 102 103
- 1.022 1 2 cbr 500 ------- 1 0.0 2.0 102 103
r 1.024 1 2 cbr 500 ------- 1 0.0 2.0 98 98
+ 1.025 0 1 cbr 500 ------- 1 0.0 2.0 105 107
- 1.025 0 1 cbr 500 ------- 1 0.0 2.0 105 107
r 1.027 0 1 cbr 500 ------- 1 0.0 2.0 103 104
+ 1.027 1 2 cbr 500 ------- 1 0.0 2.0 103 104
- 1.027 1 2 cbr 500 ------- 1 0.0 2.0 103 104
r 1.029 1 2 cbr 500 ------- 1 0.0 2.0 99 99
+ 1.03 0 1 cbr 500 ------- 1 0.0 2.0 106 108
- 1.03 0 1 cbr 500 ------- 1 0.0 2.0 106 108
r 1.032 0 1 cbr 500 ------- 1 0.0 2.0 104 105
+ 1.032 1 2 cbr 500 ------- 1 0.0 2.0 104 105
- 1.032 1 2 cbr 500 ------- 1 0.0 2.0 104 105
r 1.034 1 2 cbr 500 ------- 1 0.0 2.0 100 101
+ 1.035 0 1 cbr 500 ------- 1 0.0 2.0 107 109
- 1.035 0 1 cbr 500 ------- 1 0.0 2.0 107 109
r 1.037 0 1 cbr 500 ------- 1 0.0 2.0 105 107
+ 1.037 1 2 cbr 500 ------- 1 0.0 2.0 105 107
- 1.037 1 2 cbr 500 ------- 1 0.0 2.0 105 107
r 1.039 1 2 cbr 500 ------- 1 0.0 2.0 101 102
+ 1.04 0 1 cbr 500 ------- 1 0.0 2.0 108 110
- 1.04 0 1 cbr 500 ------- 1 0.0 2.0 108 110
r 1.04032 2 1 ack 40 ------- 2 2.1 1.0 0 106
+ 1.04032 1 2 tcp 1040 ------- 2 1.0 2.1 1 111
- 1.04032 1 2 tcp 1040 ------- 2 1.0 2.1 1 111
+ 1.04032 1 2 tcp 1040 ------- 2 1.0 2.1 2 112
r 1.042 0 1 cbr 500 ------- 1 0.0 2.0 106 108
+ 1.042 1 2 cbr 500 ------- 1 0.0 2.0 106 108
r 1.044 1 2 cbr 500 ------- 1 0.0 2.0 102 103
- 1.04448 1 2 tcp 1040 ------- 2 1.0 2.1 2 112
+ 1.045 0 1 cbr 500 ------- 1 0.0 2.0 109 113
- 1.045 0 1 cbr 500 ------- 1 0.0 2.0 109 113
r 1.047 0 1 cbr 500 ------- 1 0.0 2.0 107 109
+ 1.047 1 2 cbr 500 ------- 1 0.0 2.0 107 109
- 1.04864 1 2 cbr 500 ------- 1 0.0 2.0 106 108
r 1.049 1 2 cbr 500 ------- 1 0.0 2.0 103 104
+ 1.05 0 1 cbr 500 ------- 1 0.0 2.0 110 114
- 1.05 0 1 cbr 500 ------- 1 0.0 2.0 110 114
- 1.05064 1 2 cbr 500 ------- 1 0.0 2.0 107 109
r 1.052 0 1 cbr 500 ------- 1 0.0 2.0 108 110
+ 1.052 1 2 cbr 500 ------- 1 0.0 2.0 108 110
- 1.05264 1 2 cbr 500 ------- 1 0.0 2.0 108 110
r 1.054 1 2 cbr 500 ------- 1 0.0 2.0 104 105
+ 1.055 0 1 cbr 500 ------- 1 0.0 2.0 111 115
- 1.055 0 1 cbr 500 ------- 1 0.0 2.0 111 115
r 1.057 0 1 cbr 500 ------- 1 0.0 2.0 109 113
+ 1.057 1 2 cbr 500 ------- 1 0.0 2.0 109 113
- 1.057 1 2 cbr 500 ------- 1 0.0 2.0 109 113
r 1.059 1 2 cbr 500 ------- 1 0.0 2.0 105 107
+ 1.06 0 1 cbr 500 ------- 1 0.0 2.0 112 116
- 1.06 0 1 cbr 500 ------- 1 0.0 2.0 112 116
r 1.062 0 1 cbr 500 ------- 1 0.0 2.0 110 114
+ 1.062 1 2 cbr 500 ------- 1 0.0 2.0 110 114
- 1.062 1 2 cbr 500 ------- 1 0.0 2.0 110 114
r 1.06448 1 2 tcp 1040 ------- 2 1.0 2.1 1 111
+ 1.06448 2 1 ack 40 ------- 2 2.1 1.0 1 117
- 1.06448 2 1 ack 40 ------- 2 2.1 1.0 1 117
+ 1.065 0 1 cbr 500 ------- 1 0.0 2.0 113 118
- 1.065 0 1 cbr 500 ------- 1 0.0 2.0 113 118
r 1.067 0 1 cbr 500 ------- 1 0.0 2.0 111 115
+ 1.067 1 2 cbr 500 ------- 1 0.0 2.0 111 115
- 1.067 1 2 cbr 500 ------- 1 0.0 2.0 111 115