n -t 0 -s 0 -S DLABEL -l "UDP Source" -L ""
n -t 0 -s 1 -S DLABEL -l "TCP Source" -L ""
n -t 0 -s 2 -S DLABEL -l "TCP & UDP Sink" -L ""
V -t * -v 1.0a5 -a 0
A -t * -n 1 -p 0 -o 0x7fffffff -c 30 -a 1
A -t * -h 1 -m 1073741823 -s 0
c -t * -i 1 -n Blue
c -t * -i 2 -n Red
n -t * -a 0 -s 0 -S UP -v circle -c black -i black
n -t * -a 1 -s 1 -S UP -v circle -c black -i black
n -t * -a 2 -s 2 -S UP -v circle -c black -i black
l -t * -s 0 -d 1 -S UP -r 250000 -D 0.01 -c black -o right
l -t * -s 1 -d 2 -S UP -r 250000 -D 0.02 -c black -o down
+ -t 0.5 -s 0 -d 1 -p cbr -e 500 -c 1 -i 0 -a 1 -x {0.0 2.0 0 ------- null}
- -t 0.5 -s 0 -d 1 -p cbr -e 500 -c 1 -i 0 -a 1 -x {0.0 2.0 0 ------- null}
h -t 0.5 -s 0 -d 1 -p cbr -e 500 -c 1 -i 0 -a 1 -x {0.0 2.0 -1 ------- null}
+ -t 0.505 -s 0 -d 1 -p cbr -e 500 -c 1 -i 1 -a 1 -x {0.0 2.0 1 ------- null}
+ -t 0.51 -s 0 -d 1 -p cbr -e 500 -c 1 -i 2 -a 1 -x {0.0 2.0 2 ------- null}
+ -t 0.515 -s 0 -d 1 -p cbr -e 500 -c 1 -i 3 -a 1 -x {0.0 2.0 3 ------- null}
- -t 0.516 -s 0 -d 1 -p cbr -e 500 -c 1 -i 1 -a 1 -x {0.0 2.0 1 ------- null}
h -t 0.516 -s 0 -d 1 -p cbr -e 500 -c 1 -i 1 -a 1 -x {0.0 2.0 -1 ------- null}
+ -t 0.52 -s 0 -d 1 -p cbr -e 500 -c 1 -i 4 -a 1 -x {0.0 2.0 4 ------- null}
+ -t 0.525 -s 0 -d 1 -p cbr -e 500 -c 1 -i 5 -a 1 -x {0.0 2.0 5 ------- null}
r -t 0.526 -s 0 -d 1 -p cbr -e 500 -c 1 -i 0 -a 1 -x {0.0 2.0 0 ------- null}
+ -t 0.526 -s 1 -d 2 -p cbr -e 500 -c 1 -i 0 -a 1 -x {0.0 2.0 0 ------- null}
- -t 0.526 -s 1 -d 2 -p cbr -e 500 -c 1 -i 0 -a 1 -x {0.0 2.0 0 ------- null}
h -t 0.526 -s 1 -d 2 -p cbr -e 500 -c 1 -i 0 -a 1 -x {0.0 2.0 -1 ------- null}
+ -t 0.53 -s 0 -d 1 -p cbr -e 500 -c 1 -i 6 -a 1 -x {0.0 2.0 6 ------- null}
- -t 0.532 -s 0 -d 1 -p cbr -e 500 -c 1 -i 2 -a 1 -x {0.0 2.0 2 ------- null}
h -t 0.532 -s 0 -d 1 -p cbr -e 500 -c 1 -i 2 -a 1 -x {0.0 2.0 -1 ------- null}
+ -t 0.535 -s 0 -d 1 -p cbr -e 500 -c 1 -i 7 -a 1 -x {0.0 2.0 7 ------- null}
+ -t 0.54 -s 0 -d 1 -p cbr -e 500 -c 1 -i 8 -a 1 -x {0.0 2.0 8 ------- null}
r -t 0.542 -s 0 -d 1 -p cbr -e 500 -c 1 -i 1 -a 1 -x {0.0 2.0 1 ------- null}
+ -t 0.542 -s 1 -d 2 -p cbr -e 500 -c 1 -i 1 -a 1 -x {0.0 2.0 1 ------- null}
- -t 0.542 -s 1 -d 2 -p cbr -e 500 -c 1 -i 1 -a 1 -x {0.0 2.0 1 ------- null}
h -t 0.542 -s 1 -d 2 -p cbr -e 500 -c 1 -i 1 -a 1 -x {0.0 2.0 -1 ------- null}
+ -t 0.545 -s 0 -d 1 -p cbr -e 500 -c 1 -i 9 -a 1 -x {0.0 2.0 9 ------- null}
- -t 0.548 -s 0 -d 1 -p cbr -e 500 -c 1 -i 3 -a 1 -x {0.0 2.0 3 ------- null}
h -t 0.548 -s 0 -d 1 -p cbr -e 500 -c 1 -i 3 -a 1 -x {0.0 2.0 -1 ------- null}
+ -t 0.55 -s 0 -d 1 -p cbr -e 500 -c 1 -i 10 -a 1 -x {0.0 2.0 10 ------- null}
+ -t 0.555 -s 0 -d 1 -p cbr -e 500 -c 1 -i 11 -a 1 -x {0.0 2.0 11 ------- null}
r -t 0.558 -s 0 -d 1 -p cbr -e 500 -c 1 -i 2 -a 1 -x {0.0 2.0 2 ------- null}
+ -t 0.558 -s 1 -d 2 -p cbr -e 500 -c 1 -i 2 -a 1 -x {0.0 2.0 2 ------- null}
- -t 0.558 -s 1 -d 2 -p cbr -e 500 -c 1 -i 2 -a 1 -x {0.0 2.0 2 ------- null}
h -t 0.558 -s 1 -d 2 -p cbr -e 500 -c 1 -i 2 -a 1 -x {0.0 2.0 -1 ------- null}
+ -t 0.56 -s 0 -d 1 -p cbr -e 500 -c 1 -i 12 -a 1 -x {0.0 2.0 12 ------- null}
r -t 0.562 -s 1 -d 2 -p cbr -e 500 -c 1 -i 0 -a 1 -x {0.0 2.0 0 ------- null}
- -t 0.564 -s 0 -d 1 -p cbr -e 500 -c 1 -i 4 -a 1 -x {0.0 2.0 4 ------- null}
h -t 0.564 -s 0 -d 1 -p cbr -e 500 -c 1 -i 4 -a 1 -x {0.0 2.0 -1 ------- null}
+ -t 0.565 -s 0 -d 1 -p cbr -e 500 -c 1 -i 13 -a 1 -x {0.0 2.0 13 ------- null}
+ -t 0.57 -s 0 -d 1 -p cbr -e 500 -c 1 -i 14 -a 1 -x {0.0 2.0 14 ------- null}
r -t 0.574 -s 0 -d 1 -p cbr -e 500 -c 1 -i 3 -a 1 -x {0.0 2.0 3 ------- null}
+ -t 0.574 -s 1 -d 2 -p cbr -e 500 -c 1 -i 3 -a 1 -x {0.0 2.0 3 ------- null}
- -t 0.574 -s 1 -d 2 -p cbr -e 500 -c 1 -i 3 -a 1 -x {0.0 2.0 3 ------- null}
h -t 0.574 -s 1 -d 2 -p cbr -e 500 -c 1 -i 3 -a 1 -x {0.0 2.0 -1 ------- null}
+ -t 0.575 -s 0 -d 1 -p cbr -e 500 -c 1 -i 15 -a 1 -x {0.0 2.0 15 ------- null}
r -t 0.578 -s 1 -d 2 -p cbr -e 500 -c 1 -i 1 -a 1 -x {0.0 2.0 1 ------- null}
- -t 0.58 -s 0 -d 1 -p cbr -e 500 -c 1 -i 5 -a 1 -x {0.0 2.0 5 ------- null}
h -t 0.58 -s 0 -d 1 -p cbr -e 500 -c 1 -i 5 -a 1 -x {0.0 2.0 -1 ------- null}
+ -t 0.58 -s 0 -d 1 -p cbr -e 500 -c 1 -i 16 -a 1 -x {0.0 2.0 16 ------- null}
+ -t 0.585 -s 0 -d 1 -p cbr -e 500 -c 1 -i 17 -a 1 -x {0.0 2.0 17 ------- null}
r -t 0.59 -s 0 -d 1 -p cbr -e 500 -c 1 -i 4 -a 1 -x {0.0 2.0 4 ------- null}
+ -t 0.59 -s 1 -d 2 -p cbr -e 500 -c 1 -i 4 -a 1 -x {0.0 2.0 4 ------- null}
- -t 0.59 -s 1 -d 2 -p cbr -e 500 -c 1 -i 4 -a 1 -x {0.0 2.0 4 ------- null}
h -t 0.59 -s 1 -d 2 -p cbr -e 500 -c 1 -i 4 -a 1 -x {0.0 2.0 -1 ------- null}
+ -t 0.59 -s 0 -d 1 -p cbr -e 500 -c 1 -i 18 -a 1 -x {0.0 2.0 18 ------- null}
r -t 0.594 -s 1 -d 2 -p cbr -e 500 -c 1 -i 2 -a 1 -x {0.0 2.0 2 ------- null}
+ -t 0.595 -s 0 -d 1 -p cbr -e 500 -c 1 -i 19 -a 1 -x {0.0 2.0 19 ------- null}
- -t 0.596 -s 0 -d 1 -p cbr -e 500 -c 1 -i 6 -a 1 -x {0.0 2.0 6 ------- null}
h -t 0.596 -s 0 -d 1 -p cbr -e 500 -c 1 -i 6 -a 1 -x {0.0 2.0 -1 ------- null}
+ -t 0.6 -s 0 -d 1 -p cbr -e 500 -c 1 -i 20 -a 1 -x {0.0 2.0 20 ------- null}
+ -t 0.605 -s 0 -d 1 -p cbr -e 500 -c 1 -i 21 -a 1 -x {0.0 2.0 21 ------- null}
r -t 0.606 -s 0 -d 1 -p cbr -e 500 -c 1 -i 5 -a 1 -x {0.0 2.0 5 ------- null}
+ -t 0.606 -s 1 -d 2 -p cbr -e 500 -c 1 -i 5 -a 1 -x {0.0 2.0 5 ------- null}
- -t 0.606 -s 1 -d 2 -p cbr -e 500 -c 1 -i 5 -a 1 -x {0.0 2.0 5 ------- null}
h -t 0.606 -s 1 -d 2 -p cbr -e 500 -c 1 -i 5 -a 1 -x {0.0 2.0 -1 ------- null}
r -t 0.61 -s 1 -d 2 -p cbr -e 500 -c 1 -i 3 -a 1 -x {0.0 2.0 3 ------- null}
+ -t 0.61 -s 0 -d 1 -p cbr -e 500 -c 1 -i 22 -a 1 -x {0.0 2.0 22 ------- null}
- -t 0.612 -s 0 -d 1 -p cbr -e 500 -c 1 -i 7 -a 1 -x {0.0 2.0 7 ------- null}
h -t 0.612 -s 0 -d 1 -p cbr -e 500 -c 1 -i 7 -a 1 -x {0.0 2.0 -1 ------- null}
+ -t 0.615 -s 0 -d 1 -p cbr -e 500 -c 1 -i 23 -a 1 -x {0.0 2.0 23 ------- null}
+ -t 0.62 -s 0 -d 1 -p cbr -e 500 -c 1 -i 24 -a 1 -x {0.0 2.0 24 ------- null}
r -t 0.622 -s 0 -d 1 -p cbr -e 500 -c 1 -i 6 -a 1 -x {0.0 2.0 6 ------- null}
+ -t 0.622 -s 1 -d 2 -p cbr -e 500 -c 1 -i 6 -a 1 -x {0.0 2.0 6 ------- null}
- -t 0.622 -s 1 -d 2 -p cbr -e 500 -c 1 -i 6 -a 1 -x {0.0 2.0 6 ------- null}
h -t 0.622 -s 1 -d 2 -p cbr -e 500 -c 1 -i 6 -a 1 -x {0.0 2.0 -1 ------- null}
+ -t 0.625 -s 0 -d 1 -p cbr -e 500 -c 1 -i 25 -a 1 -x {0.0 2.0 25 ------- null}
r -t 0.626 -s 1 -d 2 -p cbr -e 500 -c 1 -i 4 -a 1 -x {0.0 2.0 4 ------- null}
- -t 0.628 -s 0 -d 1 -p cbr -e 500 -c 1 -i 8 -a 1 -x {0.0 2.0 8 ------- null}
h -t 0.628 -s 0 -d 1 -p cbr -e 500 -c 1 -i 8 -a 1 -x {0.0 2.0 -1 ------- null}
+ -t 0.63 -s 0 -d 1 -p cbr -e 500 -c 1 -i 26 -a 1 -x {0.0 2.0 26 ------- null}
+ -t 0.635 -s 0 -d 1 -p cbr -e 500 -c 1 -i 27 -a 1 -x {0.0 2.0 27 ------- null}
r -t 0.638 -s 0 -d 1 -p cbr -e 500 -c 1 -i 7 -a 1 -x {0.0 2.0 7 ------- null}
+ -t 0.638 -s 1 -d 2 -p cbr -e 500 -c 1 -i 7 -a 1 -x {0.0 2.0 7 ------- null}
- -t 0.638 -s 1 -d 2 -p cbr -e 500 -c 1 -i 7 -a 1 -x {0.0 2.0 7 ------- null}
h -t 0.638 -s 1 -d 2 -p cbr -e 500 -c 1 -i 7 -a 1 -x {0.0 2.0 -1 ------- null}
+ -t 0.64 -s 0 -d 1 -p cbr -e 500 -c 1 -i 28 -a 1 -x {0.0 2.0 28 ------- null}
r -t 0.642 -s 1 -d 2 -p cbr -e 500 -c 1 -i 5 -a 1 -x {0.0 2.0 5 ------- null}
- -t 0.644 -s 0 -d 1 -p cbr -e 500 -c 1 -i 9 -a 1 -x {0.0 2.0 9 ------- null}
h -t 0.644 -s 0 -d 1 -p cbr -e 500 -c 1 -i 9 -a 1 -x {0.0 2.0 -1 ------- null}
+ -t 0.645 -s 0 -d 1 -p cbr -e 500 -c 1 -i 29 -a 1 -x {0.0 2.0 29 ------- null}
+ -t 0.65 -s 0 -d 1 -p cbr -e 500 -c 1 -i 30 -a 1 -x {0.0 2.0 30 ------- null}
r -t 0.654 -s 0 -d 1 -p cbr -e 500 -c 1 -i 8 -a 1 -x {0.0 2.0 8 ------- null}
+ -t 0.654 -s 1 -d 2 -p cbr -e 500 -c 1 -i 8 -a 1 -x {0.0 2.0 8 ------- null}
- -t 0.654 -s 1 -d 2 -p cbr -e 500 -c 1 -i 8 -a 1 -x {0.0 2.0 8 ------- null}
h -t 0.654 -s 1 -d 2 -p cbr -e 500 -c 1 -i 8 -a 1 -x {0.0 2.0 -1 ------- null}
+ -t 0.655 -s 0 -d 1 -p cbr -e 500 -c 1 -i 31 -a 1 -x {0.0 2.0 31 ------- null}
r -t 0.658 -s 1 -d 2 -p cbr -e 500 -c 1 -i 6 -a 1 -x {0.0 2.0 6 ------- null}
- -t 0.66 -s 0 -d 1 -p cbr -e 500 -c 1 -i 10 -a 1 -x {0.0 2.0 10 ------- null}
h -t 0.66 -s 0 -d 1 -p cbr -e 500 -c 1 -i 10 -a 1 -x {0.0 2.0 -1 ------- null}
+ -t 0.66 -s 0 -d 1 -p cbr -e 500 -c 1 -i 32 -a 1 -x {0.0 2.0 32 ------- null}
+ -t 0.665 -s 0 -d 1 -p cbr -e 500 -c 1 -i 33 -a 1 -x {0.0 2.0 33 ------- null}
r -t 0.67 -s 0 -d 1 -p cbr -e 500 -c 1 -i 9 -a 1 -x {0.0 2.0 9 ------- null}
+ -t 0.67 -s 1 -d 2 -p cbr -e 500 -c 1 -i 9 -a 1 -x {0.0 2.0 9 ------- null}
- -t 0.67 -s 1 -d 2 -p cbr -e 500 -c 1 -i 9 -a 1 -x {0.0 2.0 9 ------- null}
h -t 0.67 -s 1 -d 2 -p cbr -e 500 -c 1 -i 9 -a 1 -x {0.0 2.0 -1 ------- null}
+ -t 0.67 -s 0 -d 1 -p cbr -e 500 -c 1 -i 34 -a 1 -x {0.0 2.0 34 ------- null}
r -t 0.674 -s 1 -d 2 -p cbr -e 500 -c 1 -i 7 -a 1 -x {0.0 2.0 7 ------- null}
+ -t 0.675 -s 0 -d 1 -p cbr -e 500 -c 1 -i 35 -a 1 -x {0.0 2.0 35 ------- null}
- -t 0.676 -s 0 -d 1 -p cbr -e 500 -c 1 -i 11 -a 1 -x {0.0 2.0 11 ------- null}
h -t 0.676 -s 0 -d 1 -p cbr -e 500 -c 1 -i 11 -a 1 -x {0.0 2.0 -1 ------- null}
+ -t 0.68 -s 0 -d 1 -p cbr -e 500 -c 1 -i 36 -a 1 -x {0.0 2.0 36 ------- null}
+ -t 0.685 -s 0 -d 1 -p cbr -e 500 -c 1 -i 37 -a 1 -x {0.0 2.0 37 ------- null}
r -t 0.686 -s 0 -d 1 -p cbr -e 500 -c 1 -i 10 -a 1 -x {0.0 2.0 10 ------- null}
+ -t 0.686 -s 1 -d 2 -p cbr -e 500 -c 1 -i 10 -a 1 -x {0.0 2.0 10 ------- null}
- -t 0.686 -s 1 -d 2 -p cbr -e 500 -c 1 -i 10 -a 1 -x {0.0 2.0 10 ------- null}
h -t 0.686 -s 1 -d 2 -p cbr -e 500 -c 1 -i 10 -a 1 -x {0.0 2.0 -1 ------- null}
r -t 0.69 -s 1 -d 2 -p cbr -e 500 -c 1 -i 8 -a 1 -x {0.0 2.0 8 ------- null}
+ -t 0.69 -s 0 -d 1 -p cbr -e 500 -c 1 -i 38 -a 1 -x {0.0 2.0 38 ------- null}
- -t 0.692 -s 0 -d 1 -p cbr -e 500 -c 1 -i 12 -a 1 -x {0.0 2.0 12 ------- null}
h -t 0.692 -s 0 -d 1 -p cbr -e 500 -c 1 -i 12 -a 1 -x {0.0 2.0 -1 ------- null}
+ -t 0.695 -s 0 -d 1 -p cbr -e 500 -c 1 -i 39 -a 1 -x {0.0 2.0 39 ------- null}
+ -t 0.7 -s 0 -d 1 -p cbr -e 500 -c 1 -i 40 -a 1 -x {0.0 2.0 40 ------- null}
r -t 0.702 -s 0 -d 1 -p cbr -e 500 -c 1 -i 11 -a 1 -x {0.0 2.0 11 ------- null}
+ -t 0.702 -s 1 -d 2 -p cbr -e 500 -c 1 -i 11 -a 1 -x {0.0 2.0 11 ------- null}
- -t 0.702 -s 1 -d 2 -p cbr -e 500 -c 1 -i 11 -a 1 -x {0.0 2.0 11 ------- null}
h -t 0.702 -s 1 -d 2 -p cbr -e 500 -c 1 -i 11 -a 1 -x {0.0 2.0 -1 ------- null}
+ -t 0.705 -s 0 -d 1 -p cbr -e 500 -c 1 -i 41 -a 1 -x {0.0 2.0 41 ------- null}
r -t 0.706 -s 1 -d 2 -p cbr -e 500 -c 1 -i 9 -a 1 -x {0.0 2.0 9 ------- null}
- -t 0.708 -s 0 -d 1 -p cbr -e 500 -c 1 -i 13 -a 1 -x {0.0 2.0 13 ------- null}
h -t 0.708 -s 0 -d 1 -p cbr -e 500 -c 1 -i 13 -a 1 -x {0.0 2.0 -1 ------- null}
+ -t 0.71 -s 0 -d 1 -p cbr -e 500 -c 1 -i 42 -a 1 -x {0.0 2.0 42 ------- null}
+ -t 0.715 -s 0 -d 1 -p cbr -e 500 -c 1 -i 43 -a 1 -x {0.0 2.0 43 ------- null}
r -t 0.718 -s 0 -d 1 -p cbr -e 500 -c 1 -i 12 -a 1 -x {0.0 2.0 12 ------- null}
+ -t 0.718 -s 1 -d 2 -p cbr -e 500 -c 1 -i 12 -a 1 -x {0.0 2.0 12 ------- null}
- -t 0.718 -s 1 -d 2 -p cbr -e 500 -c 1 -i 12 -a 1 -x {0.0 2.0 12 ------- null}
h -t 0.718 -s 1 -d 2 -p cbr -e 500 -c 1 -i 12 -a 1 -x {0.0 2.0 -1 ------- null}
+ -t 0.72 -s 0 -d 1 -p cbr -e 500 -c 1 -i 44 -a 1 -x {0.0 2.0 44 ------- null}
r -t 0.722 -s 1 -d 2 -p cbr -e 500 -c 1 -i 10 -a 1 -x {0.0 2.0 10 ------- null}
- -t 0.724 -s 0 -d 1 -p cbr -e 500 -c 1 -i 14 -a 1 -x {0.0 2.0 14 ------- null}
h -t 0.724 -s 0 -d 1 -p cbr -e 500 -c 1 -i 14 -a 1 -x {0.0 2.0 -1 ------- null}
+ -t 0.725 -s 0 -d 1 -p cbr -e 500 -c 1 -i 45 -a 1 -x {0.0 2.0 45 ------- null}
+ -t 0.73 -s 0 -d 1 -p cbr -e 500 -c 1 -i 46 -a 1 -x {0.0 2.0 46 ------- null}
r -t 0.734 -s 0 -d 1 -p cbr -e 500 -c 1 -i 13 -a 1 -x {0.0 2.0 13 ------- null}
+ -t 0.734 -s 1 -d 2 -p cbr -e 500 -c 1 -i 13 -a 1 -x {0.0 2.0 13 ------- null}
- -t 0.734 -s 1 -d 2 -p cbr -e 500 -c 1 -i 13 -a 1 -x {0.0 2.0 13 ------- null}
h -t 0.734 -s 1 -d 2 -p cbr -e 500 -c 1 -i 13 -a 1 -x {0.0 2.0 -1 ------- null}
+ -t 0.735 -s 0 -d 1 -p cbr -e 500 -c 1 -i 47 -a 1 -x {0.0 2.0 47 ------- null}
r -t 0.738 -s 1 -d 2 -p cbr -e 500 -c 1 -i 11 -a 1 -x {0.0 2.0 11 ------- null}
- -t 0.74 -s 0 -d 1 -p cbr -e 500 -c 1 -i 15 -a 1 -x {0.0 2.0 15 ------- null}
h -t 0.74 -s 0 -d 1 -p cbr -e 500 -c 1 -i 15 -a 1 -x {0.0 2.0 -1 ------- null}
+ -t 0.74 -s 0 -d 1 -p cbr -e 500 -c 1 -i 48 -a 1 -x {0.0 2.0 48 ------- null}
+ -t 0.745 -s 0 -d 1 -p cbr -e 500 -c 1 -i 49 -a 1 -x {0.0 2.0 49 ------- null}
r -t 0.75 -s 0 -d 1 -p cbr -e 500 -c 1 -i 14 -a 1 -x {0.0 2.0 14 ------- null}
+ -t 0.75 -s 1 -d 2 -p cbr -e 500 -c 1 -i 14 -a 1 -x {0.0 2.0 14 ------- null}
- -t 0.75 -s 1 -d 2 -p cbr -e 500 -c 1 -i 14 -a 1 -x {0.0 2.0 14 ------- null}
h -t 0.75 -s 1 -d 2 -p cbr -e 500 -c 1 -i 14 -a 1 -x {0.0 2.0 -1 ------- null}
+ -t 0.75 -s 0 -d 1 -p cbr -e 500 -c 1 -i 50 -a 1 -x {0.0 2.0 50 ------- null}
r -t 0.754 -s 1 -d 2 -p cbr -e 500 -c 1 -i 12 -a 1 -x {0.0 2.0 12 ------- null}
+ -t 0.755 -s 0 -d 1 -p cbr -e 500 -c 1 -i 51 -a 1 -x {0.0 2.0 51 ------- null}
- -t 0.756 -s 0 -d 1 -p cbr -e 500 -c 1 -i 16 -a 1 -x {0.0 2.0 16 ------- null}
h -t 0.756 -s 0 -d 1 -p cbr -e 500 -c 1 -i 16 -a 1 -x {0.0 2.0 -1 ------- null}
+ -t 0.76 -s 0 -d 1 -p cbr -e 500 -c 1 -i 52 -a 1 -x {0.0 2.0 52 ------- null}
+ -t 0.765 -s 0 -d 1 -p cbr -e 500 -c 1 -i 53 -a 1 -x {0.0 2.0 53 ------- null}
r -t 0.766 -s 0 -d 1 -p cbr -e 500 -c 1 -i 15 -a 1 -x {0.0 2.0 15 ------- null}
+ -t 0.766 -s 1 -d 2 -p cbr -e 500 -c 1 -i 15 -a 1 -x {0.0 2.0 15 ------- null}
- -t 0.766 -s 1 -d 2 -p cbr -e 500 -c 1 -i 15 -a 1 -x {0.0 2.0 15 ------- null}
h -t 0.766 -s 1 -d 2 -p cbr -e 500 -c 1 -i 15 -a 1 -x {0.0 2.0 -1 ------- null}
r -t 0.77 -s 1 -d 2 -p cbr -e 500 -c 1 -i 13 -a 1 -x {0.0 2.0 13 ------- null}
+ -t 0.77 -s 0 -d 1 -p cbr -e 500 -c 1 -i 54 -a 1 -x {0.0 2.0 54 ------- null}
- -t 0.772 -s 0 -d 1 -p cbr -e 500 -c 1 -i 17 -a 1 -x {0.0 2.0 17 ------- null}
h -t 0.772 -s 0 -d 1 -p cbr -e 500 -c 1 -i 17 -a 1 -x {0.0 2.0 -1 ------- null}
+ -t 0.775 -s 0 -d 1 -p cbr -e 500 -c 1 -i 55 -a 1 -x {0.0 2.0 55 ------- null}
+ -t 0.78 -s 0 -d 1 -p cbr -e 500 -c 1 -i 56 -a 1 -x {0.0 2.0 56 ------- null}
r -t 0.782 -s 0 -d 1 -p cbr -e 500 -c 1 -i 16 -a 1 -x {0.0 2.0 16 ------- null}
+ -t 0.782 -s 1 -d 2 -p cbr -e 500 -c 1 -i 16 -a 1 -x {0.0 2.0 16 ------- null}
- -t 0.782 -s 1 -d 2 -p cbr -e 500 -c 1 -i 16 -a 1 -x {0.0 2.0 16 ------- null}
h -t 0.782 -s 1 -d 2 -p cbr -e 500 -c 1 -i 16 -a 1 -x {0.0 2.0 -1 ------- null}
+ -t 0.785 -s 0 -d 1 -p cbr -e 500 -c 1 -i 57 -a 1 -x {0.0 2.0 57 ------- null}
r -t 0.786 -s 1 -d 2 -p cbr -e 500 -c 1 -i 14 -a 1 -x {0.0 2.0 14 ------- null}
- -t 0.788 -s 0 -d 1 -p cbr -e 500 -c 1 -i 18 -a 1 -x {0.0 2.0 18 ------- null}
h -t 0.788 -s 0 -d 1 -p cbr -e 500 -c 1 -i 18 -a 1 -x {0.0 2.0 -1 ------- null}
+ -t 0.79 -s 0 -d 1 -p cbr -e 500 -c 1 -i 58 -a 1 -x {0.0 2.0 58 ------- null}
+ -t 0.795 -s 0 -d 1 -p cbr -e 500 -c 1 -i 59 -a 1 -x {0.0 2.0 59 ------- null}
r -t 0.798 -s 0 -d 1 -p cbr -e 500 -c 1 -i 17 -a 1 -x {0.0 2.0 17 ------- null}
+ -t 0.798 -s 1 -d 2 -p cbr -e 500 -c 1 -i 17 -a 1 -x {0.0 2.0 17 ------- null}
- -t 0.798 -s 1 -d 2 -p cbr -e 500 -c 1 -i 17 -a 1 -x {0.0 2.0 17 ------- null}
h -t 0.798 -s 1 -d 2 -p cbr -e 500 -c 1 -i 17 -a 1 -x {0.0 2.0 -1 ------- null}
+ -t 0.8 -s 0 -d 1 -p cbr -e 500 -c 1 -i 60 -a 1 -x {0.0 2.0 60 ------- null}
r -t 0.802 -s 1 -d 2 -p cbr -e 500 -c 1 -i 15 -a 1 -x {0.0 2.0 15 ------- null}
- -t 0.804 -s 0 -d 1 -p cbr -e 500 -c 1 -i 19 -a 1 -x {0.0 2.0 19 ------- null}
h -t 0.804 -s 0 -d 1 -p cbr -e 500 -c 1 -i 19 -a 1 -x {0.0 2.0 -1 ------- null}
+ -t 0.805 -s 0 -d 1 -p cbr -e 500 -c 1 -i 61 -a 1 -x {0.0 2.0 61 ------- null}
+ -t 0.81 -s 0 -d 1 -p cbr -e 500 -c 1 -i 62 -a 1 -x {0.0 2.0 62 ------- null}
r -t 0.814 -s 0 -d 1 -p cbr -e 500 -c 1 -i 18 -a 1 -x {0.0 2.0 18 ------- null}
+ -t 0.814 -s 1 -d 2 -p cbr -e 500 -c 1 -i 18 -a 1 -x {0.0 2.0 18 ------- null}
- -t 0.814 -s 1 -d 2 -p cbr -e 500 -c 1 -i 18 -a 1 -x {0.0 2.0 18 ------- null}
h -t 0.814 -s 1 -d 2 -p cbr -e 500 -c 1 -i 18 -a 1 -x {0.0 2.0 -1 ------- null}
+ -t 0.815 -s 0 -d 1 -p cbr -e 500 -c 1 -i 63 -a 1 -x {0.0 2.0 63 ------- null}
r -t 0.818 -s 1 -d 2 -p cbr -e 500 -c 1 -i 16 -a 1 -x {0.0 2.0 16 ------- null}
- -t 0.82 -s 0 -d 1 -p cbr -e 500 -c 1 -i 20 -a 1 -x {0.0 2.0 20 ------- null}
h -t 0.82 -s 0 -d 1 -p cbr -e 500 -c 1 -i 20 -a 1 -x {0.0 2.0 -1 ------- null}
+ -t 0.82 -s 0 -d 1 -p cbr -e 500 -c 1 -i 64 -a 1 -x {0.0 2.0 64 ------- null}
+ -t 0.825 -s 0 -d 1 -p cbr -e 500 -c 1 -i 65 -a 1 -x {0.0 2.0 65 ------- null}
r -t 0.83 -s 0 -d 1 -p cbr -e 500 -c 1 -i 19 -a 1 -x {0.0 2.0 19 ------- null}
+ -t 0.83 -s 1 -d 2 -p cbr -e 500 -c 1 -i 19 -a 1 -x {0.0 2.0 19 ------- null}
- -t 0.83 -s 1 -d 2 -p cbr -e 500 -c 1 -i 19 -a 1 -x {0.0 2.0 19 ------- null}
h -t 0.83 -s 1 -d 2 -p cbr -e 500 -c 1 -i 19 -a 1 -x {0.0 2.0 -1 ------- null}
+ -t 0.83 -s 0 -d 1 -p cbr -e 500 -c 1 -i 66 -a 1 -x {0.0 2.0 66 ------- null}
r -t 0.834 -s 1 -d 2 -p cbr -e 500 -c 1 -i 17 -a 1 -x {0.0 2.0 17 ------- null}
+ -t 0.835 -s 0 -d 1 -p cbr -e 500 -c 1 -i 67 -a 1 -x {0.0 2.0 67 ------- null}
- -t 0.836 -s 0 -d 1 -p cbr -e 500 -c 1 -i 21 -a 1 -x {0.0 2.0 21 ------- null}
h -t 0.836 -s 0 -d 1 -p cbr -e 500 -c 1 -i 21 -a 1 -x {0.0 2.0 -1 ------- null}
+ -t 0.84 -s 0 -d 1 -p cbr -e 500 -c 1 -i 68 -a 1 -x {0.0 2.0 68 ------- null}
+ -t 0.845 -s 0 -d 1 -p cbr -e 500 -c 1 -i 69 -a 1 -x {0.0 2.0 69 ------- null}
r -t 0.846 -s 0 -d 1 -p cbr -e 500 -c 1 -i 20 -a 1 -x {0.0 2.0 20 ------- null}
+ -t 0.846 -s 1 -d 2 -p cbr -e 500 -c 1 -i 20 -a 1 -x {0.0 2.0 20 ------- null}
- -t 0.846 -s 1 -d 2 -p cbr -e 500 -c 1 -i 20 -a 1 -x {0.0 2.0 20 ------- null}
h -t 0.846 -s 1 -d 2 -p cbr -e 500 -c 1 -i 20 -a 1 -x {0.0 2.0 -1 ------- null}
r -t 0.85 -s 1 -d 2 -p cbr -e 500 -c 1 -i 18 -a 1 -x {0.0 2.0 18 ------- null}
+ -t 0.85 -s 0 -d 1 -p cbr -e 500 -c 1 -i 70 -a 1 -x {0.0 2.0 70 ------- null}
- -t 0.852 -s 0 -d 1 -p cbr -e 500 -c 1 -i 22 -a 1 -x {0.0 2.0 22 ------- null}
h -t 0.852 -s 0 -d 1 -p cbr -e 500 -c 1 -i 22 -a 1 -x {0.0 2.0 -1 ------- null}
+ -t 0.855 -s 0 -d 1 -p cbr -e 500 -c 1 -i 71 -a 1 -x {0.0 2.0 71 ------- null}
+ -t 0.86 -s 0 -d 1 -p cbr -e 500 -c 1 -i 72 -a 1 -x {0.0 2.0 72 ------- null}
d -t 0.86 -s 0 -d 1 -p cbr -e 500 -c 1 -i 72 -a 1 -x {0.0 2.0 72 ------- null}
r -t 0.862 -s 0 -d 1 -p cbr -e 500 -c 1 -i 21 -a 1 -x {0.0 2.0 21 ------- null}
+ -t 0.862 -s 1 -d 2 -p cbr -e 500 -c 1 -i 21 -a 1 -x {0.0 2.0 21 ------- null}
- -t 0.862 -s 1 -d 2 -p cbr -e 500 -c 1 -i 21 -a 1 -x {0.0 2.0 21 ------- null}
h -t 0.862 -s 1 -d 2 -p cbr -e 500 -c 1 -i 21 -a 1 -x {0.0 2.0 -1 ------- null}
+ -t 0.865 -s 0 -d 1 -p cbr -e 500 -c 1 -i 73 -a 1 -x {0.0 2.0 73 ------- null}
d -t 0.865 -s 0 -d 1 -p cbr -e 500 -c 1 -i 73 -a 1 -x {0.0 2.0 73 ------- null}
r -t 0.866 -s 1 -d 2 -p cbr -e 500 -c 1 -i 19 -a 1 -x {0.0 2.0 19 ------- null}
- -t 0.868 -s 0 -d 1 -p cbr -e 500 -c 1 -i 23 -a 1 -x {0.0 2.0 23 ------- null}
h -t 0.868 -s 0 -d 1 -p cbr -e 500 -c 1 -i 23 -a 1 -x {0.0 2.0 -1 ------- null}
+ -t 0.87 -s 0 -d 1 -p cbr -e 500 -c 1 -i 74 -a 1 -x {0.0 2.0 74 ------- null}
+ -t 0.875 -s 0 -d 1 -p cbr -e 500 -c 1 -i 75 -a 1 -x {0.0 2.0 75 ------- null}
d -t 0.875 -s 0 -d 1 -p cbr -e 500 -c 1 -i 75 -a 1 -x {0.0 2.0 75 ------- null}
r -t 0.878 -s 0 -d 1 -p cbr -e 500 -c 1 -i 22 -a 1 -x {0.0 2.0 22 ------- null}
+ -t 0.878 -s 1 -d 2 -p cbr -e 500 -c 1 -i 22 -a 1 -x {0.0 2.0 22 ------- null}
- -t 0.878 -s 1 -d 2 -p cbr -e 500 -c 1 -i 22 -a 1 -x {0.0 2.0 22 ------- null}
h -t 0.878 -s 1 -d 2 -p cbr -e 500 -c 1 -i 22 -a 1 -x {0.0 2.0 -1 ------- null}
+ -t 0.88 -s 0 -d 1 -p cbr -e 500 -c 1 -i 76 -a 1 -x {0.0 2.0 76 ------- null}
d -t 0.88 -s 0 -d 1 -p cbr -e 500 -c 1 -i 76 -a 1 -x {0.0 2.0 76 ------- null}
r -t 0.882 -s 1 -d 2 -p cbr -e 500 -c 1 -i 20 -a 1 -x {0.0 2.0 20 ------- null}
- -t 0.884 -s 0 -d 1 -p cbr -e 500 -c 1 -i 24 -a 1 -x {0.0 2.0 24 ------- null}
h -t 0.884 -s 0 -d 1 -p cbr -e 500 -c 1 -i 24 -a 1 -x {0.0 2.0 -1 ------- null}
+ -t 0.885 -s 0 -d 1 -p cbr -e 500 -c 1 -i 77 -a 1 -x {0.0 2.0 77 ------- null}
+ -t 0.89 -s 0 -d 1 -p cbr -e 500 -c 1 -i 78 -a 1 -x {0.0 2.0 78 ------- null}
d -t 0.89 -s 0 -d 1 -p cbr -e 500 -c 1 -i 78 -a 1 -x {0.0 2.0 78 ------- null}
r -t 0.894 -s 0 -d 1 -p cbr -e 500 -c 1 -i 23 -a 1 -x {0.0 2.0 23 ------- null}
+ -t 0.894 -s 1 -d 2 -p cbr -e 500 -c 1 -i 23 -a 1 -x {0.0 2.0 23 ------- null}
- -t 0.894 -s 1 -d 2 -p cbr -e 500 -c 1 -i 23 -a 1 -x {0.0 2.0 23 ------- null}
h -t 0.894 -s 1 -d 2 -p cbr -e 500 -c 1 -i 23 -a 1 -x {0.0 2.0 -1 ------- null}
+ -t 0.895 -s 0 -d 1 -p cbr -e 500 -c 1 -i 79 -a 1 -x {0.0 2.0 79 ------- null}
d -t 0.895 -s 0 -d 1 -p cbr -e 500 -c 1 -i 79 -a 1 -x {0.0 2.0 79 ------- null}
r -t 0.898 -s 1 -d 2 -p cbr -e 500 -c 1 -i 21 -a 1 -x {0.0 2.0 21 ------- null}
- -t 0.9 -s 0 -d 1 -p cbr -e 500 -c 1 -i 25 -a 1 -x {0.0 2.0 25 ------- null}
h -t 0.9 -s 0 -d 1 -p cbr -e 500 -c 1 -i 25 -a 1 -x {0.0 2.0 -1 ------- null}
+ -t 0.9 -s 0 -d 1 -p cbr -e 500 -c 1 -i 80 -a 1 -x {0.0 2.0 80 ------- null}
+ -t 0.905 -s 0 -d 1 -p cbr -e 500 -c 1 -i 81 -a 1 -x {0.0 2.0 81 ------- null}
d -t 0.905 -s 0 -d 1 -p cbr -e 500 -c 1 -i 81 -a 1 -x {0.0 2.0 81 ------- null}
r -t 0.91 -s 0 -d 1 -p cbr -e 500 -c 1 -i 24 -a 1 -x {0.0 2.0 24 ------- null}
+ -t 0.91 -s 1 -d 2 -p cbr -e 500 -c 1 -i 24 -a 1 -x {0.0 2.0 24 ------- null}
- -t 0.91 -s 1 -d 2 -p cbr -e 500 -c 1 -i 24 -a 1 -x {0.0 2.0 24 ------- null}
h -t 0.91 -s 1 -d 2 -p cbr -e 500 -c 1 -i 24 -a 1 -x {0.0 2.0 -1 ------- null}
+ -t 0.91 -s 0 -d 1 -p cbr -e 500 -c 1 -i 82 -a 1 -x {0.0 2.0 82 ------- null}
d -t 0.91 -s 0 -d 1 -p cbr -e 500 -c 1 -i 82 -a 1 -x {0.0 2.0 82 ------- null}
r -t 0.914 -s 1 -d 2 -p cbr -e 500 -c 1 -i 22 -a 1 -x {0.0 2.0 22 ------- null}
+ -t 0.915 -s 0 -d 1 -p cbr -e 500 -c 1 -i 83 -a 1 -x {0.0 2.0 83 ------- null}
d -t 0.915 -s 0 -d 1 -p cbr -e 500 -c 1 -i 83 -a 1 -x {0.0 2.0 83 ------- null}
- -t 0.916 -s 0 -d 1 -p cbr -e 500 -c 1 -i 26 -a 1 -x {0.0 2.0 26 ------- null}
h -t 0.916 -s 0 -d 1 -p cbr -e 500 -c 1 -i 26 -a 1 -x {0.0 2.0 -1 ------- null}
+ -t 0.92 -s 0 -d 1 -p cbr -e 500 -c 1 -i 84 -a 1 -x {0.0 2.0 84 ------- null}
+ -t 0.925 -s 0 -d 1 -p cbr -e 500 -c 1 -i 85 -a 1 -x {0.0 2.0 85 ------- null}
d -t 0.925 -s 0 -d 1 -p cbr -e 500 -c 1 -i 85 -a 1 -x {0.0 2.0 85 ------- null}
r -t 0.926 -s 0 -d 1 -p cbr -e 500 -c 1 -i 25 -a 1 -x {0.0 2.0 25 ------- null}
+ -t 0.926 -s 1 -d 2 -p cbr -e 500 -c 1 -i 25 -a 1 -x {0.0 2.0 25 ------- null}
- -t 0.926 -s 1 -d 2 -p cbr -e 500 -c 1 -i 25 -a 1 -x {0.0 2.0 25 ------- null}
h -t 0.926 -s 1 -d 2 -p cbr -e 500 -c 1 -i 25 -a 1 -x {0.0 2.0 -1 ------- null}
r -t 0.93 -s 1 -d 2 -p cbr -e 500 -c 1 -i 23 -a 1 -x {0.0 2.0 23 ------- null}
+ -t 0.93 -s 0 -d 1 -p cbr -e 500 -c 1 -i 86 -a 1 -x {0.0 2.0 86 ------- null}
d -t 0.93 -s 0 -d 1 -p cbr -e 500 -c 1 -i 86 -a 1 -x {0.0 2.0 86 ------- null}
- -t 0.932 -s 0 -d 1 -p cbr -e 500 -c 1 -i 27 -a 1 -x {0.0 2.0 27 ------- null}
h -t 0.932 -s 0 -d 1 -p cbr -e 500 -c 1 -i 27 -a 1 -x {0.0 2.0 -1 ------- null}
+ -t 0.935 -s 0 -d 1 -p cbr -e 500 -c 1 -i 87 -a 1 -x {0.0 2.0 87 ------- null}
+ -t 0.94 -s 0 -d 1 -p cbr -e 500 -c 1 -i 88 -a 1 -x {0.0 2.0 88 ------- null}
d -t 0.94 -s 0 -d 1 -p cbr -e 500 -c 1 -i 88 -a 1 -x {0.0 2.0 88 ------- null}
r -t 0.942 -s 0 -d 1 -p cbr -e 500 -c 1 -i 26 -a 1 -x {0.0 2.0 26 ------- null}
+ -t 0.942 -s 1 -d 2 -p cbr -e 500 -c 1 -i 26 -a 1 -x {0.0 2.0 26 ------- null}
- -t 0.942 -s 1 -d 2 -p cbr -e 500 -c 1 -i 26 -a 1 -x {0.0 2.0 26 ------- null}
h -t 0.942 -s 1 -d 2 -p cbr -e 500 -c 1 -i 26 -a 1 -x {0.0 2.0 -1 ------- null}
+ -t 0.945 -s 0 -d 1 -p cbr -e 500 -c 1 -i 89 -a 1 -x {0.0 2.0 89 ------- null}
d -t 0.945 -s 0 -d 1 -p cbr -e 500 -c 1 -i 89 -a 1 -x {0.0 2.0 89 ------- null}
r -t 0.946 -s 1 -d 2 -p cbr -e 500 -c 1 -i 24 -a 1 -x {0.0 2.0 24 ------- null}
- -t 0.948 -s 0 -d 1 -p cbr -e 500 -c 1 -i 28 -a 1 -x {0.0 2.0 28 ------- null}
h -t 0.948 -s 0 -d 1 -p cbr -e 500 -c 1 -i 28 -a 1 -x {0.0 2.0 -1 ------- null}
+ -t 0.95 -s 0 -d 1 -p cbr -e 500 -c 1 -i 90 -a 1 -x {0.0 2.0 90 ------- null}
+ -t 0.955 -s 0 -d 1 -p cbr -e 500 -c 1 -i 91 -a 1 -x {0.0 2.0 91 ------- null}
d -t 0.955 -s 0 -d 1 -p cbr -e 500 -c 1 -i 91 -a 1 -x {0.0 2.0 91 ------- null}
r -t 0.958 -s 0 -d 1 -p cbr -e 500 -c 1 -i 27 -a 1 -x {0.0 2.0 27 ------- null}
+ -t 0.958 -s 1 -d 2 -p cbr -e 500 -c 1 -i 27 -a 1 -x {0.0 2.0 27 ------- null}
- -t 0.958 -s 1 -d 2 -p cbr -e 500 -c 1 -i 27 -a 1 -x {0.0 2.0 27 ------- null}
h -t 0.958 -s 1 -d 2 -p cbr -e 500 -c 1 -i 27 -a 1 -x {0.0 2.0 -1 ------- null}
+ -t 0.96 -s 0 -d 1 -p cbr -e 500 -c 1 -i 92 -a 1 -x {0.0 2.0 92 ------- null}
d -t 0.96 -s 0 -d 1 -p cbr -e 500 -c 1 -i 92 -a 1 -x {0.0 2.0 92 ------- null}
r -t 0.962 -s 1 -d 2 -p cbr -e 500 -c 1 -i 25 -a 1 -x {0.0 2.0 25 ------- null}
- -t 0.964 -s 0 -d 1 -p cbr -e 500 -c 1 -i 29 -a 1 -x {0.0 2.0 29 ------- null}
h -t 0.964 -s 0 -d 1 -p cbr -e 500 -c 1 -i 29 -a 1 -x {0.0 2.0 -1 ------- null}
+ -t 0.965 -s 0 -d 1 -p cbr -e 500 -c 1 -i 93 -a 1 -x {0.0 2.0 93 ------- null}
+ -t 0.97 -s 0 -d 1 -p cbr -e 500 -c 1 -i 94 -a 1 -x {0.0 2.0 94 ------- null}
d -t 0.97 -s 0 -d 1 -p cbr -e 500 -c 1 -i 94 -a 1 -x {0.0 2.0 94 ------- null}
r -t 0.974 -s 0 -d 1 -p cbr -e 500 -c 1 -i 28 -a 1 -x {0.0 2.0 28 ------- null}
+ -t 0.974 -s 1 -d 2 -p cbr -e 500 -c 1 -i 28 -a 1 -x {0.0 2.0 28 ------- null}
- -t 0.974 -s 1 -d 2 -p cbr -e 500 -c 1 -i 28 -a 1 -x {0.0 2.0 28 ------- null}
h -t 0.974 -s 1 -d 2 -p cbr -e 500 -c 1 -i 28 -a 1 -x {0.0 2.0 -1 ------- null}
+ -t 0.975 -s 0 -d 1 -p cbr -e 500 -c 1 -i 95 -a 1 -x {0.0 2.0 95 ------- null}
d -t 0.975 -s 0 -d 1 -p cbr -e 500 -c 1 -i 95 -a 1 -x {0.0 2.0 95 ------- null}
r -t 0.978 -s 1 -d 2 -p cbr -e 500 -c 1 -i 26 -a 1 -x {0.0 2.0 26 ------- null}
- -t 0.98 -s 0 -d 1 -p cbr -e 500 -c 1 -i 30 -a 1 -x {0.0 2.0 30 ------- null}
h -t 0.98 -s 0 -d 1 -p cbr -e 500 -c 1 -i 30 -a 1 -x {0.0 2.0 -1 ------- null}
+ -t 0.98 -s 0 -d 1 -p cbr -e 500 -c 1 -i 96 -a 1 -x {0.0 2.0 96 ------- null}
+ -t 0.985 -s 0 -d 1 -p cbr -e 500 -c 1 -i 97 -a 1 -x {0.0 2.0 97 ------- null}
d -t 0.985 -s 0 -d 1 -p cbr -e 500 -c 1 -i 97 -a 1 -x {0.0 2.0 97 ------- null}
r -t 0.99 -s 0 -d 1 -p cbr -e 500 -c 1 -i 29 -a 1 -x {0.0 2.0 29 ------- null}
+ -t 0.99 -s 1 -d 2 -p cbr -e 500 -c 1 -i 29 -a 1 -x {0.0 2.0 29 ------- null}
- -t 0.99 -s 1 -d 2 -p cbr -e 500 -c 1 -i 29 -a 1 -x {0.0 2.0 29 ------- null}
h -t 0.99 -s 1 -d 2 -p cbr -e 500 -c 1 -i 29 -a 1 -x {0.0 2.0 -1 ------- null}
+ -t 0.99 -s 0 -d 1 -p cbr -e 500 -c 1 -i 98 -a 1 -x {0.0 2.0 98 ------- null}
d -t 0.99 -s 0 -d 1 -p cbr -e 500 -c 1 -i 98 -a 1 -x {0.0 2.0 98 ------- null}
r -t 0.994 -s 1 -d 2 -p cbr -e 500 -c 1 -i 27 -a 1 -x {0.0 2.0 27 ------- null}
+ -t 0.995 -s 0 -d 1 -p cbr -e 500 -c 1 -i 99 -a 1 -x {0.0 2.0 99 ------- null}
d -t 0.995 -s 0 -d 1 -p cbr -e 500 -c 1 -i 99 -a 1 -x {0.0 2.0 99 ------- null}
- -t 0.996 -s 0 -d 1 -p cbr -e 500 -c 1 -i 31 -a 1 -x {0.0 2.0 31 ------- null}
h -t 0.996 -s 0 -d 1 -p cbr -e 500 -c 1 -i 31 -a 1 -x {0.0 2.0 -1 ------- null}
+ -t 1 -s 1 -d 2 -p tcp -e 40 -c 2 -i 100 -a 2 -x {1.0 2.1 0 ------- null}
+ -t 1 -s 0 -d 1 -p cbr -e 500 -c 1 -i 101 -a 1 -x {0.0 2.0 100 ------- null}
+ -t 1.005 -s 0 -d 1 -p cbr -e 500 -c 1 -i 102 -a 1 -x {0.0 2.0 101 ------- null}
d -t 1.005 -s 0 -d 1 -p cbr -e 500 -c 1 -i 102 -a 1 -x {0.0 2.0 101 ------- null}
r -t 1.006 -s 0 -d 1 -p cbr -e 500 -c 1 -i 30 -a 1 -x {0.0 2.0 30 ------- null}
+ -t 1.006 -s 1 -d 2 -p cbr -e 500 -c 1 -i 30 -a 1 -x {0.0 2.0 30 ------- null}
- -t 1.006 -s 1 -d 2 -p tcp -e 40 -c 2 -i 100 -a 2 -x {1.0 2.1 0 ------- null}
h -t 1.006 -s 1 -d 2 -p tcp -e 40 -c 2 -i 100 -a 2 -x {1.0 2.1 -1 ------- null}
- -t 1.00728 -s 1 -d 2 -p cbr -e 500 -c 1 -i 30 -a 1 -x {0.0 2.0 30 ------- null}
h -t 1.00728 -s 1 -d 2 -p cbr -e 500 -c 1 -i 30 -a 1 -x {0.0 2.0 -1 ------- null}
+ -t 1.01 -s 0 -d 1 -p cbr -e 500 -c 1 -i 103 -a 1 -x {0.0 2.0 102 ------- null}
d -t 1.01 -s 0 -d 1 -p cbr -e 500 -c 1 -i 103 -a 1 -x {0.0 2.0 102 ------- null}
r -t 1.01 -s 1 -d 2 -p cbr -e 500 -c 1 -i 28 -a 1 -x {0.0 2.0 28 ------- null}
- -t 1.012 -s 0 -d 1 -p cbr -e 500 -c 1 -i 32 -a 1 -x {0.0 2.0 32 ------- null}
h -t 1.012 -s 0 -d 1 -p cbr -e 500 -c 1 -i 32 -a 1 -x {0.0 2.0 -1 ------- null}
+ -t 1.015 -s 0 -d 1 -p cbr -e 500 -c 1 -i 104 -a 1 -x {0.0 2.0 103 ------- null}
+ -t 1.02 -s 0 -d 1 -p cbr -e 500 -c 1 -i 105 -a 1 -x {0.0 2.0 104 ------- null}
d -t 1.02 -s 0 -d 1 -p cbr -e 500 -c 1 -i 105 -a 1 -x {0.0 2.0 104 ------- null}
r -t 1.022 -s 0 -d 1 -p cbr -e 500 -c 1 -i 31 -a 1 -x {0.0 2.0 31 ------- null}
+ -t 1.022 -s 1 -d 2 -p cbr -e 500 -c 1 -i 31 -a 1 -x {0.0 2.0 31 ------- null}
- -t 1.02328 -s 1 -d 2 -p cbr -e 500 -c 1 -i 31 -a 1 -x {0.0 2.0 31 ------- null}
h -t 1.02328 -s 1 -d 2 -p cbr -e 500 -c 1 -i 31 -a 1 -x {0.0 2.0 -1 ------- null}
+ -t 1.025 -s 0 -d 1 -p cbr -e 500 -c 1 -i 106 -a 1 -x {0.0 2.0 105 ------- null}
d -t 1.025 -s 0 -d 1 -p cbr -e 500 -c 1 -i 106 -a 1 -x {0.0 2.0 105 ------- null}
r -t 1.026 -s 1 -d 2 -p cbr -e 500 -c 1 -i 29 -a 1 -x {0.0 2.0 29 ------- null}
r -t 1.02728 -s 1 -d 2 -p tcp -e 40 -c 2 -i 100 -a 2 -x {1.0 2.1 0 ------- null}
+ -t 1.02728 -s 2 -d 1 -p ack -e 40 -c 2 -i 107 -a 2 -x {2.1 1.0 0 ------- null}
- -t 1.02728 -s 2 -d 1 -p ack -e 40 -c 2 -i 107 -a 2 -x {2.1 1.0 0 ------- null}
h -t 1.02728 -s 2 -d 1 -p ack -e 40 -c 2 -i 107 -a 2 -x {2.1 1.0 -1 ------- null}
- -t 1.028 -s 0 -d 1 -p cbr -e 500 -c 1 -i 33 -a 1 -x {0.0 2.0 33 ------- null}
h -t 1.028 -s 0 -d 1 -p cbr -e 500 -c 1 -i 33 -a 1 -x {0.0 2.0 -1 ------- null}
+ -t 1.03 -s 0 -d 1 -p cbr -e 500 -c 1 -i 108 -a 1 -x {0.0 2.0 106 ------- null}
+ -t 1.035 -s 0 -d 1 -p cbr -e 500 -c 1 -i 109 -a 1 -x {0.0 2.0 107 ------- null}
d -t 1.035 -s 0 -d 1 -p cbr -e 500 -c 1 -i 109 -a 1 -x {0.0 2.0 107 ------- null}
r -t 1.038 -s 0 -d 1 -p cbr -e 500 -c 1 -i 32 -a 1 -x {0.0 2.0 32 ------- null}
+ -t 1.038 -s 1 -d 2 -p cbr -e 500 -c 1 -i 32 -a 1 -x {0.0 2.0 32 ------- null}
- -t 1.03928 -s 1 -d 2 -p cbr -e 500 -c 1 -i 32 -a 1 -x {0.0 2.0 32 ------- null}
h -t 1.03928 -s 1 -d 2 -p cbr -e 500 -c 1 -i 32 -a 1 -x {0.0 2.0 -1 ------- null}
+ -t 1.04 -s 0 -d 1 -p cbr -e 500 -c 1 -i 110 -a 1 -x {0.0 2.0 108 ------- null}