n -t 0 -s 0 -S DLABEL -l "UDP Source" -L ""
n -t 0 -s 1 -S DLABEL -l "TCP Source" -L ""
n -t 0 -s 2 -S DLABEL -l "TCP & UDP Sink" -L ""
V -t * -v 1.0a5 -a 0
A -t * -n 1 -p 0 -o 0x7fffffff -c 30 -a 1
A -t * -h 1 -m 1073741823 -s 0
c -t * -i 1 -n Blue
c -t * -i 2 -n Red
n -t * -a 0 -s 0 -S UP -v circle -c black -i black
n -t * -a 1 -s 1 -S UP -v circle -c black -i black
n -t * -a 2 -s 2 -S UP -v circle -c black -i black
l -t * -s 0 -d 1 -S UP -r 2000000 -D 0.01 -c black -o right
l -t * -s 1 -d 2 -S UP -r 2000000 -D 0.02 -c black -o down
+ -t 0.5 -s 0 -d 1 -p cbr -e 500 -c 1 -i 0 -a 1 -x {0.0 2.0 0 ------- null}
- -t 0.5 -s 0 -d 1 -p cbr -e 500 -c 1 -i 0 -a 1 -x {0.0 2.0 0 ------- null}
h -t 0.5 -s 0 -d 1 -p cbr -e 500 -c 1 -i 0 -a 1 -x {0.0 2.0 -1 ------- null}
+ -t 0.505 -s 0 -d 1 -p cbr -e 500 -c 1 -i 1 -a 1 -x {0.0 2.0 1 ------- null}
- -t 0.505 -s 0 -d 1 -p cbr -e 500 -c 1 -i 1 -a 1 -x {0.0 2.0 1 ------- null}
h -t 0.505 -s 0 -d 1 -p cbr -e 500 -c 1 -i 1 -a 1 -x {0.0 2.0 -1 ------- null}
+ -t 0.51 -s 0 -d 1 -p cbr -e 500 -c 1 -i 2 -a 1 -x {0.0 2.0 2 ------- null}
- -t 0.51 -s 0 -d 1 -p cbr -e 500 -c 1 -i 2 -a 1 -x {0.0 2.0 2 ------- null}
h -t 0.51 -s 0 -d 1 -p cbr -e 500 -c 1 -i 2 -a 1 -x {0.0 2.0 -1 ------- null}
r -t 0.512 -s 0 -d 1 -p cbr -e 500 -c 1 -i 0 -a 1 -x {0.0 2.0 0 ------- null}
+ -t 0.512 -s 1 -d 2 -p cbr -e 500 -c 1 -i 0 -a 1 -x {0.0 2.0 0 ------- null}
- -t 0.512 -s 1 -d 2 -p cbr -e 500 -c 1 -i 0 -a 1 -x {0.0 2.0 0 ------- null}
h -t 0.512 -s 1 -d 2 -p cbr -e 500 -c 1 -i 0 -a 1 -x {0.0 2.0 -1 ------- null}
+ -t 0.515 -s 0 -d 1 -p cbr -e 500 -c 1 -i 3 -a 1 -x {0.0 2.0 3 ------- null}
- -t 0.515 -s 0 -d 1 -p cbr -e 500 -c 1 -i 3 -a 1 -x {0.0 2.0 3 ------- null}
h -t 0.515 -s 0 -d 1 -p cbr -e 500 -c 1 -i 3 -a 1 -x {0.0 2.0 -1 ------- null}
r -t 0.517 -s 0 -d 1 -p cbr -e 500 -c 1 -i 1 -a 1 -x {0.0 2.0 1 ------- null}
+ -t 0.517 -s 1 -d 2 -p cbr -e 500 -c 1 -i 1 -a 1 -x {0.0 2.0 1 ------- null}
- -t 0.517 -s 1 -d 2 -p cbr -e 500 -c 1 -i 1 -a 1 -x {0.0 2.0 1 ------- null}
h -t 0.517 -s 1 -d 2 -p cbr -e 500 -c 1 -i 1 -a 1 -x {0.0 2.0 -1 ------- null}
+ -t 0.52 -s 0 -d 1 -p cbr -e 500 -c 1 -i 4 -a 1 -x {0.0 2.0 4 ------- null}
- -t 0.52 -s 0 -d 1 -p cbr -e 500 -c 1 -i 4 -a 1 -x {0.0 2.0 4 ------- null}
h -t 0.52 -s 0 -d 1 -p cbr -e 500 -c 1 -i 4 -a 1 -x {0.0 2.0 -1 ------- null}
r -t 0.522 -s 0 -d 1 -p cbr -e 500 -c 1 -i 2 -a 1 -x {0.0 2.0 2 ------- null}
+ -t 0.522 -s 1 -d 2 -p cbr -e 500 -c 1 -i 2 -a 1 -x {0.0 2.0 2 ------- null}
- -t 0.522 -s 1 -d 2 -p cbr -e 500 -c 1 -i 2 -a 1 -x {0.0 2.0 2 ------- null}
h -t 0.522 -s 1 -d 2 -p cbr -e 500 -c 1 -i 2 -a 1 -x {0.0 2.0 -1 ------- null}
+ -t 0.525 -s 0 -d 1 -p cbr -e 500 -c 1 -i 5 -a 1 -x {0.0 2.0 5 ------- null}
- -t 0.525 -s 0 -d 1 -p cbr -e 500 -c 1 -i 5 -a 1 -x {0.0 2.0 5 ------- null}
h -t 0.525 -s 0 -d 1 -p cbr -e 500 -c 1 -i 5 -a 1 -x {0.0 2.0 -1 ------- null}
r -t 0.527 -s 0 -d 1 -p cbr -e 500 -c 1 -i 3 -a 1 -x {0.0 2.0 3 ------- null}
+ -t 0.527 -s 1 -d 2 -p cbr -e 500 -c 1 -i 3 -a 1 -x {0.0 2.0 3 ------- null}
- -t 0.527 -s 1 -d 2 -p cbr -e 500 -c 1 -i 3 -a 1 -x {0.0 2.0 3 ------- null}
h -t 0.527 -s 1 -d 2 -p cbr -e 500 -c 1 -i 3 -a 1 -x {0.0 2.0 -1 ------- null}
+ -t 0.53 -s 0 -d 1 -p cbr -e 500 -c 1 -i 6 -a 1 -x {0.0 2.0 6 ------- null}
- -t 0.53 -s 0 -d 1 -p cbr -e 500 -c 1 -i 6 -a 1 -x {0.0 2.0 6 ------- null}
h -t 0.53 -s 0 -d 1 -p cbr -e 500 -c 1 -i 6 -a 1 -x {0.0 2.0 -1 ------- null}
r -t 0.532 -s 0 -d 1 -p cbr -e 500 -c 1 -i 4 -a 1 -x {0.0 2.0 4 ------- null}
+ -t 0.532 -s 1 -d 2 -p cbr -e 500 -c 1 -i 4 -a 1 -x {0.0 2.0 4 ------- null}
- -t 0.532 -s 1 -d 2 -p cbr -e 500 -c 1 -i 4 -a 1 -x {0.0 2.0 4 ------- null}
h -t 0.532 -s 1 -d 2 -p cbr -e 500 -c 1 -i 4 -a 1 -x {0.0 2.0 -1 ------- null}
r -t 0.534 -s 1 -d 2 -p cbr -e 500 -c 1 -i 0 -a 1 -x {0.0 2.0 0 ------- null}
+ -t 0.535 -s 0 -d 1 -p cbr -e 500 -c 1 -i 7 -a 1 -x {0.0 2.0 7 ------- null}
- -t 0.535 -s 0 -d 1 -p cbr -e 500 -c 1 -i 7 -a 1 -x {0.0 2.0 7 ------- null}
h -t 0.535 -s 0 -d 1 -p cbr -e 500 -c 1 -i 7 -a 1 -x {0.0 2.0 -1 ------- null}
r -t 0.537 -s 0 -d 1 -p cbr -e 500 -c 1 -i 5 -a 1 -x {0.0 2.0 5 ------- null}
+ -t 0.537 -s 1 -d 2 -p cbr -e 500 -c 1 -i 5 -a 1 -x {0.0 2.0 5 ------- null}
- -t 0.537 -s 1 -d 2 -p cbr -e 500 -c 1 -i 5 -a 1 -x {0.0 2.0 5 ------- null}
h -t 0.537 -s 1 -d 2 -p cbr -e 500 -c 1 -i 5 -a 1 -x {0.0 2.0 -1 ------- null}
r -t 0.539 -s 1 -d 2 -p cbr -e 500 -c 1 -i 1 -a 1 -x {0.0 2.0 1 ------- null}
+ -t 0.54 -s 0 -d 1 -p cbr -e 500 -c 1 -i 8 -a 1 -x {0.0 2.0 8 ------- null}
- -t 0.54 -s 0 -d 1 -p cbr -e 500 -c 1 -i 8 -a 1 -x {0.0 2.0 8 ------- null}
h -t 0.54 -s 0 -d 1 -p cbr -e 500 -c 1 -i 8 -a 1 -x {0.0 2.0 -1 ------- null}
r -t 0.542 -s 0 -d 1 -p cbr -e 500 -c 1 -i 6 -a 1 -x {0.0 2.0 6 ------- null}
+ -t 0.542 -s 1 -d 2 -p cbr -e 500 -c 1 -i 6 -a 1 -x {0.0 2.0 6 ------- null}
- -t 0.542 -s 1 -d 2 -p cbr -e 500 -c 1 -i 6 -a 1 -x {0.0 2.0 6 ------- null}
h -t 0.542 -s 1 -d 2 -p cbr -e 500 -c 1 -i 6 -a 1 -x {0.0 2.0 -1 ------- null}
r -t 0.544 -s 1 -d 2 -p cbr -e 500 -c 1 -i 2 -a 1 -x {0.0 2.0 2 ------- null}
+ -t 0.545 -s 0 -d 1 -p cbr -e 500 -c 1 -i 9 -a 1 -x {0.0 2.0 9 ------- null}
- -t 0.545 -s 0 -d 1 -p cbr -e 500 -c 1 -i 9 -a 1 -x {0.0 2.0 9 ------- null}
h -t 0.545 -s 0 -d 1 -p cbr -e 500 -c 1 -i 9 -a 1 -x {0.0 2.0 -1 ------- null}
r -t 0.547 -s 0 -d 1 -p cbr -e 500 -c 1 -i 7 -a 1 -x {0.0 2.0 7 ------- null}
+ -t 0.547 -s 1 -d 2 -p cbr -e 500 -c 1 -i 7 -a 1 -x {0.0 2.0 7 ------- null}
- -t 0.547 -s 1 -d 2 -p cbr -e 500 -c 1 -i 7 -a 1 -x {0.0 2.0 7 ------- null}
h -t 0.547 -s 1 -d 2 -p cbr -e 500 -c 1 -i 7 -a 1 -x {0.0 2.0 -1 ------- null}
r -t 0.549 -s 1 -d 2 -p cbr -e 500 -c 1 -i 3 -a 1 -x {0.0 2.0 3 ------- null}
+ -t 0.55 -s 0 -d 1 -p cbr -e 500 -c 1 -i 10 -a 1 -x {0.0 2.0 10 ------- null}
- -t 0.55 -s 0 -d 1 -p cbr -e 500 -c 1 -i 10 -a 1 -x {0.0 2.0 10 ------- null}
h -t 0.55 -s 0 -d 1 -p cbr -e 500 -c 1 -i 10 -a 1 -x {0.0 2.0 -1 ------- null}
r -t 0.552 -s 0 -d 1 -p cbr -e 500 -c 1 -i 8 -a 1 -x {0.0 2.0 8 ------- null}
+ -t 0.552 -s 1 -d 2 -p cbr -e 500 -c 1 -i 8 -a 1 -x {0.0 2.0 8 ------- null}
- -t 0.552 -s 1 -d 2 -p cbr -e 500 -c 1 -i 8 -a 1 -x {0.0 2.0 8 ------- null}
h -t 0.552 -s 1 -d 2 -p cbr -e 500 -c 1 -i 8 -a 1 -x {0.0 2.0 -1 ------- null}
r -t 0.554 -s 1 -d 2 -p cbr -e 500 -c 1 -i 4 -a 1 -x {0.0 2.0 4 ------- null}
+ -t 0.555 -s 0 -d 1 -p cbr -e 500 -c 1 -i 11 -a 1 -x {0.0 2.0 11 ------- null}
- -t 0.555 -s 0 -d 1 -p cbr -e 500 -c 1 -i 11 -a 1 -x {0.0 2.0 11 ------- null}
h -t 0.555 -s 0 -d 1 -p cbr -e 500 -c 1 -i 11 -a 1 -x {0.0 2.0 -1 ------- null}
r -t 0.557 -s 0 -d 1 -p cbr -e 500 -c 1 -i 9 -a 1 -x {0.0 2.0 9 ------- null}
+ -t 0.557 -s 1 -d 2 -p cbr -e 500 -c 1 -i 9 -a 1 -x {0.0 2.0 9 ------- null}
- -t 0.557 -s 1 -d 2 -p cbr -e 500 -c 1 -i 9 -a 1 -x {0.0 2.0 9 ------- null}
h -t 0.557 -s 1 -d 2 -p cbr -e 500 -c 1 -i 9 -a 1 -x {0.0 2.0 -1 ------- null}
r -t 0.559 -s 1 -d 2 -p cbr -e 500 -c 1 -i 5 -a 1 -x {0.0 2.0 5 ------- null}
+ -t 0.56 -s 0 -d 1 -p cbr -e 500 -c 1 -i 12 -a 1 -x {0.0 2.0 12 ------- null}
- -t 0.56 -s 0 -d 1 -p cbr -e 500 -c 1 -i 12 -a 1 -x {0.0 2.0 12 ------- null}
h -t 0.56 -s 0 -d 1 -p cbr -e 500 -c 1 -i 12 -a 1 -x {0.0 2.0 -1 ------- null}
r -t 0.562 -s 0 -d 1 -p cbr -e 500 -c 1 -i 10 -a 1 -x {0.0 2.0 10 ------- null}
+ -t 0.562 -s 1 -d 2 -p cbr -e 500 -c 1 -i 10 -a 1 -x {0.0 2.0 10 ------- null}
- -t 0.562 -s 1 -d 2 -p cbr -e 500 -c 1 -i 10 -a 1 -x {0.0 2.0 10 ------- null}
h -t 0.562 -s 1 -d 2 -p cbr -e 500 -c 1 -i 10 -a 1 -x {0.0 2.0 -1 ------- null}
r -t 0.564 -s 1 -d 2 -p cbr -e 500 -c 1 -i 6 -a 1 -x {0.0 2.0 6 ------- null}
+ -t 0.565 -s 0 -d 1 -p cbr -e 500 -c 1 -i 13 -a 1 -x {0.0 2.0 13 ------- null}
- -t 0.565 -s 0 -d 1 -p cbr -e 500 -c 1 -i 13 -a 1 -x {0.0 2.0 13 ------- null}
h -t 0.565 -s 0 -d 1 -p cbr -e 500 -c 1 -i 13 -a 1 -x {0.0 2.0 -1 ------- null}
r -t 0.567 -s 0 -d 1 -p cbr -e 500 -c 1 -i 11 -a 1 -x {0.0 2.0 11 ------- null}
+ -t 0.567 -s 1 -d 2 -p cbr -e 500 -c 1 -i 11 -a 1 -x {0.0 2.0 11 ------- null}
- -t 0.567 -s 1 -d 2 -p cbr -e 500 -c 1 -i 11 -a 1 -x {0.0 2.0 11 ------- null}
h -t 0.567 -s 1 -d 2 -p cbr -e 500 -c 1 -i 11 -a 1 -x {0.0 2.0 -1 ------- null}
r -t 0.569 -s 1 -d 2 -p cbr -e 500 -c 1 -i 7 -a 1 -x {0.0 2.0 7 ------- null}
+ -t 0.57 -s 0 -d 1 -p cbr -e 500 -c 1 -i 14 -a 1 -x {0.0 2.0 14 ------- null}
- -t 0.57 -s 0 -d 1 -p cbr -e 500 -c 1 -i 14 -a 1 -x {0.0 2.0 14 ------- null}
h -t 0.57 -s 0 -d 1 -p cbr -e 500 -c 1 -i 14 -a 1 -x {0.0 2.0 -1 ------- null}
r -t 0.572 -s 0 -d 1 -p cbr -e 500 -c 1 -i 12 -a 1 -x {0.0 2.0 12 ------- null}
+ -t 0.572 -s 1 -d 2 -p cbr -e 500 -c 1 -i 12 -a 1 -x {0.0 2.0 12 ------- null}
- -t 0.572 -s 1 -d 2 -p cbr -e 500 -c 1 -i 12 -a 1 -x {0.0 2.0 12 ------- null}
h -t 0.572 -s 1 -d 2 -p cbr -e 500 -c 1 -i 12 -a 1 -x {0.0 2.0 -1 ------- null}
r -t 0.574 -s 1 -d 2 -p cbr -e 500 -c 1 -i 8 -a 1 -x {0.0 2.0 8 ------- null}
+ -t 0.575 -s 0 -d 1 -p cbr -e 500 -c 1 -i 15 -a 1 -x {0.0 2.0 15 ------- null}
- -t 0.575 -s 0 -d 1 -p cbr -e 500 -c 1 -i 15 -a 1 -x {0.0 2.0 15 ------- null}
h -t 0.575 -s 0 -d 1 -p cbr -e 500 -c 1 -i 15 -a 1 -x {0.0 2.0 -1 ------- null}
r -t 0.577 -s 0 -d 1 -p cbr -e 500 -c 1 -i 13 -a 1 -x {0.0 2.0 13 ------- null}
+ -t 0.577 -s 1 -d 2 -p cbr -e 500 -c 1 -i 13 -a 1 -x {0.0 2.0 13 ------- null}
- -t 0.577 -s 1 -d 2 -p cbr -e 500 -c 1 -i 13 -a 1 -x {0.0 2.0 13 ------- null}
h -t 0.577 -s 1 -d 2 -p cbr -e 500 -c 1 -i 13 -a 1 -x {0.0 2.0 -1 ------- null}
r -t 0.579 -s 1 -d 2 -p cbr -e 500 -c 1 -i 9 -a 1 -x {0.0 2.0 9 ------- null}
+ -t 0.58 -s 0 -d 1 -p cbr -e 500 -c 1 -i 16 -a 1 -x {0.0 2.0 16 ------- null}
- -t 0.58 -s 0 -d 1 -p cbr -e 500 -c 1 -i 16 -a 1 -x {0.0 2.0 16 ------- null}
h -t 0.58 -s 0 -d 1 -p cbr -e 500 -c 1 -i 16 -a 1 -x {0.0 2.0 -1 ------- null}
r -t 0.582 -s 0 -d 1 -p cbr -e 500 -c 1 -i 14 -a 1 -x {0.0 2.0 14 ------- null}
+ -t 0.582 -s 1 -d 2 -p cbr -e 500 -c 1 -i 14 -a 1 -x {0.0 2.0 14 ------- null}
- -t 0.582 -s 1 -d 2 -p cbr -e 500 -c 1 -i 14 -a 1 -x {0.0 2.0 14 ------- null}
h -t 0.582 -s 1 -d 2 -p cbr -e 500 -c 1 -i 14 -a 1 -x {0.0 2.0 -1 ------- null}
r -t 0.584 -s 1 -d 2 -p cbr -e 500 -c 1 -i 10 -a 1 -x {0.0 2.0 10 ------- null}
+ -t 0.585 -s 0 -d 1 -p cbr -e 500 -c 1 -i 17 -a 1 -x {0.0 2.0 17 ------- null}
- -t 0.585 -s 0 -d 1 -p cbr -e 500 -c 1 -i 17 -a 1 -x {0.0 2.0 17 ------- null}
h -t 0.585 -s 0 -d 1 -p cbr -e 500 -c 1 -i 17 -a 1 -x {0.0 2.0 -1 ------- null}
r -t 0.587 -s 0 -d 1 -p cbr -e 500 -c 1 -i 15 -a 1 -x {0.0 2.0 15 ------- null}
+ -t 0.587 -s 1 -d 2 -p cbr -e 500 -c 1 -i 15 -a 1 -x {0.0 2.0 15 ------- null}
- -t 0.587 -s 1 -d 2 -p cbr -e 500 -c 1 -i 15 -a 1 -x {0.0 2.0 15 ------- null}
h -t 0.587 -s 1 -d 2 -p cbr -e 500 -c 1 -i 15 -a 1 -x {0.0 2.0 -1 ------- null}
r -t 0.589 -s 1 -d 2 -p cbr -e 500 -c 1 -i 11 -a 1 -x {0.0 2.0 11 ------- null}
+ -t 0.59 -s 0 -d 1 -p cbr -e 500 -c 1 -i 18 -a 1 -x {0.0 2.0 18 ------- null}
- -t 0.59 -s 0 -d 1 -p cbr -e 500 -c 1 -i 18 -a 1 -x {0.0 2.0 18 ------- null}
h -t 0.59 -s 0 -d 1 -p cbr -e 500 -c 1 -i 18 -a 1 -x {0.0 2.0 -1 ------- null}
r -t 0.592 -s 0 -d 1 -p cbr -e 500 -c 1 -i 16 -a 1 -x {0.0 2.0 16 ------- null}
+ -t 0.592 -s 1 -d 2 -p cbr -e 500 -c 1 -i 16 -a 1 -x {0.0 2.0 16 ------- null}
- -t 0.592 -s 1 -d 2 -p cbr -e 500 -c 1 -i 16 -a 1 -x {0.0 2.0 16 ------- null}
h -t 0.592 -s 1 -d 2 -p cbr -e 500 -c 1 -i 16 -a 1 -x {0.0 2.0 -1 ------- null}
r -t 0.594 -s 1 -d 2 -p cbr -e 500 -c 1 -i 12 -a 1 -x {0.0 2.0 12 ------- null}
+ -t 0.595 -s 0 -d 1 -p cbr -e 500 -c 1 -i 19 -a 1 -x {0.0 2.0 19 ------- null}
- -t 0.595 -s 0 -d 1 -p cbr -e 500 -c 1 -i 19 -a 1 -x {0.0 2.0 19 ------- null}
h -t 0.595 -s 0 -d 1 -p cbr -e 500 -c 1 -i 19 -a 1 -x {0.0 2.0 -1 ------- null}
r -t 0.597 -s 0 -d 1 -p cbr -e 500 -c 1 -i 17 -a 1 -x {0.0 2.0 17 ------- null}
+ -t 0.597 -s 1 -d 2 -p cbr -e 500 -c 1 -i 17 -a 1 -x {0.0 2.0 17 ------- null}
- -t 0.597 -s 1 -d 2 -p cbr -e 500 -c 1 -i 17 -a 1 -x {0.0 2.0 17 ------- null}
h -t 0.597 -s 1 -d 2 -p cbr -e 500 -c 1 -i 17 -a 1 -x {0.0 2.0 -1 ------- null}
r -t 0.599 -s 1 -d 2 -p cbr -e 500 -c 1 -i 13 -a 1 -x {0.0 2.0 13 ------- null}
+ -t 0.6 -s 0 -d 1 -p cbr -e 500 -c 1 -i 20 -a 1 -x {0.0 2.0 20 ------- null}
- -t 0.6 -s 0 -d 1 -p cbr -e 500 -c 1 -i 20 -a 1 -x {0.0 2.0 20 ------- null}
h -t 0.6 -s 0 -d 1 -p cbr -e 500 -c 1 -i 20 -a 1 -x {0.0 2.0 -1 ------- null}
r -t 0.602 -s 0 -d 1 -p cbr -e 500 -c 1 -i 18 -a 1 -x {0.0 2.0 18 ------- null}
+ -t 0.602 -s 1 -d 2 -p cbr -e 500 -c 1 -i 18 -a 1 -x {0.0 2.0 18 ------- null}
- -t 0.602 -s 1 -d 2 -p cbr -e 500 -c 1 -i 18 -a 1 -x {0.0 2.0 18 ------- null}
h -t 0.602 -s 1 -d 2 -p cbr -e 500 -c 1 -i 18 -a 1 -x {0.0 2.0 -1 ------- null}
r -t 0.604 -s 1 -d 2 -p cbr -e 500 -c 1 -i 14 -a 1 -x {0.0 2.0 14 ------- null}
+ -t 0.605 -s 0 -d 1 -p cbr -e 500 -c 1 -i 21 -a 1 -x {0.0 2.0 21 ------- null}
- -t 0.605 -s 0 -d 1 -p cbr -e 500 -c 1 -i 21 -a 1 -x {0.0 2.0 21 ------- null}
h -t 0.605 -s 0 -d 1 -p cbr -e 500 -c 1 -i 21 -a 1 -x {0.0 2.0 -1 ------- null}
r -t 0.607 -s 0 -d 1 -p cbr -e 500 -c 1 -i 19 -a 1 -x {0.0 2.0 19 ------- null}
+ -t 0.607 -s 1 -d 2 -p cbr -e 500 -c 1 -i 19 -a 1 -x {0.0 2.0 19 ------- null}
- -t 0.607 -s 1 -d 2 -p cbr -e 500 -c 1 -i 19 -a 1 -x {0.0 2.0 19 ------- null}
h -t 0.607 -s 1 -d 2 -p cbr -e 500 -c 1 -i 19 -a 1 -x {0.0 2.0 -1 ------- null}
r -t 0.609 -s 1 -d 2 -p cbr -e 500 -c 1 -i 15 -a 1 -x {0.0 2.0 15 ------- null}
+ -t 0.61 -s 0 -d 1 -p cbr -e 500 -c 1 -i 22 -a 1 -x {0.0 2.0 22 ------- null}
- -t 0.61 -s 0 -d 1 -p cbr -e 500 -c 1 -i 22 -a 1 -x {0.0 2.0 22 ------- null}
h -t 0.61 -s 0 -d 1 -p cbr -e 500 -c 1 -i 22 -a 1 -x {0.0 2.0 -1 ------- null}
r -t 0.612 -s 0 -d 1 -p cbr -e 500 -c 1 -i 20 -a 1 -x {0.0 2.0 20 ------- null}
+ -t 0.612 -s 1 -d 2 -p cbr -e 500 -c 1 -i 20 -a 1 -x {0.0 2.0 20 ------- null}
- -t 0.612 -s 1 -d 2 -p cbr -e 500 -c 1 -i 20 -a 1 -x {0.0 2.0 20 ------- null}
h -t 0.612 -s 1 -d 2 -p cbr -e 500 -c 1 -i 20 -a 1 -x {0.0 2.0 -1 ------- null}
r -t 0.614 -s 1 -d 2 -p cbr -e 500 -c 1 -i 16 -a 1 -x {0.0 2.0 16 ------- null}
+ -t 0.615 -s 0 -d 1 -p cbr -e 500 -c 1 -i 23 -a 1 -x {0.0 2.0 23 ------- null}
- -t 0.615 -s 0 -d 1 -p cbr -e 500 -c 1 -i 23 -a 1 -x {0.0 2.0 23 ------- null}
h -t 0.615 -s 0 -d 1 -p cbr -e 500 -c 1 -i 23 -a 1 -x {0.0 2.0 -1 ------- null}
r -t 0.617 -s 0 -d 1 -p cbr -e 500 -c 1 -i 21 -a 1 -x {0.0 2.0 21 ------- null}
+ -t 0.617 -s 1 -d 2 -p cbr -e 500 -c 1 -i 21 -a 1 -x {0.0 2.0 21 ------- null}
- -t 0.617 -s 1 -d 2 -p cbr -e 500 -c 1 -i 21 -a 1 -x {0.0 2.0 21 ------- null}
h -t 0.617 -s 1 -d 2 -p cbr -e 500 -c 1 -i 21 -a 1 -x {0.0 2.0 -1 ------- null}
r -t 0.619 -s 1 -d 2 -p cbr -e 500 -c 1 -i 17 -a 1 -x {0.0 2.0 17 ------- null}
+ -t 0.62 -s 0 -d 1 -p cbr -e 500 -c 1 -i 24 -a 1 -x {0.0 2.0 24 ------- null}
- -t 0.62 -s 0 -d 1 -p cbr -e 500 -c 1 -i 24 -a 1 -x {0.0 2.0 24 ------- null}
h -t 0.62 -s 0 -d 1 -p cbr -e 500 -c 1 -i 24 -a 1 -x {0.0 2.0 -1 ------- null}
r -t 0.622 -s 0 -d 1 -p cbr -e 500 -c 1 -i 22 -a 1 -x {0.0 2.0 22 ------- null}
+ -t 0.622 -s 1 -d 2 -p cbr -e 500 -c 1 -i 22 -a 1 -x {0.0 2.0 22 ------- null}
- -t 0.622 -s 1 -d 2 -p cbr -e 500 -c 1 -i 22 -a 1 -x {0.0 2.0 22 ------- null}
h -t 0.622 -s 1 -d 2 -p cbr -e 500 -c 1 -i 22 -a 1 -x {0.0 2.0 -1 ------- null}
r -t 0.624 -s 1 -d 2 -p cbr -e 500 -c 1 -i 18 -a 1 -x {0.0 2.0 18 ------- null}
+ -t 0.625 -s 0 -d 1 -p cbr -e 500 -c 1 -i 25 -a 1 -x {0.0 2.0 25 ------- null}
- -t 0.625 -s 0 -d 1 -p cbr -e 500 -c 1 -i 25 -a 1 -x {0.0 2.0 25 ------- null}
h -t 0.625 -s 0 -d 1 -p cbr -e 500 -c 1 -i 25 -a 1 -x {0.0 2.0 -1 ------- null}
r -t 0.627 -s 0 -d 1 -p cbr -e 500 -c 1 -i 23 -a 1 -x {0.0 2.0 23 ------- null}
+ -t 0.627 -s 1 -d 2 -p cbr -e 500 -c 1 -i 23 -a 1 -x {0.0 2.0 23 ------- null}
- -t 0.627 -s 1 -d 2 -p cbr -e 500 -c 1 -i 23 -a 1 -x {0.0 2.0 23 ------- null}
h -t 0.627 -s 1 -d 2 -p cbr -e 500 -c 1 -i 23 -a 1 -x {0.0 2.0 -1 ------- null}
r -t 0.629 -s 1 -d 2 -p cbr -e 500 -c 1 -i 19 -a 1 -x {0.0 2.0 19 ------- null}
+ -t 0.63 -s 0 -d 1 -p cbr -e 500 -c 1 -i 26 -a 1 -x {0.0 2.0 26 ------- null}
- -t 0.63 -s 0 -d 1 -p cbr -e 500 -c 1 -i 26 -a 1 -x {0.0 2.0 26 ------- null}
h -t 0.63 -s 0 -d 1 -p cbr -e 500 -c 1 -i 26 -a 1 -x {0.0 2.0 -1 ------- null}
r -t 0.632 -s 0 -d 1 -p cbr -e 500 -c 1 -i 24 -a 1 -x {0.0 2.0 24 ------- null}
+ -t 0.632 -s 1 -d 2 -p cbr -e 500 -c 1 -i 24 -a 1 -x {0.0 2.0 24 ------- null}
- -t 0.632 -s 1 -d 2 -p cbr -e 500 -c 1 -i 24 -a 1 -x {0.0 2.0 24 ------- null}
h -t 0.632 -s 1 -d 2 -p cbr -e 500 -c 1 -i 24 -a 1 -x {0.0 2.0 -1 ------- null}
r -t 0.634 -s 1 -d 2 -p cbr -e 500 -c 1 -i 20 -a 1 -x {0.0 2.0 20 ------- null}
+ -t 0.635 -s 0 -d 1 -p cbr -e 500 -c 1 -i 27 -a 1 -x {0.0 2.0 27 ------- null}
- -t 0.635 -s 0 -d 1 -p cbr -e 500 -c 1 -i 27 -a 1 -x {0.0 2.0 27 ------- null}
h -t 0.635 -s 0 -d 1 -p cbr -e 500 -c 1 -i 27 -a 1 -x {0.0 2.0 -1 ------- null}
r -t 0.637 -s 0 -d 1 -p cbr -e 500 -c 1 -i 25 -a 1 -x {0.0 2.0 25 ------- null}
+ -t 0.637 -s 1 -d 2 -p cbr -e 500 -c 1 -i 25 -a 1 -x {0.0 2.0 25 ------- null}
- -t 0.637 -s 1 -d 2 -p cbr -e 500 -c 1 -i 25 -a 1 -x {0.0 2.0 25 ------- null}
h -t 0.637 -s 1 -d 2 -p cbr -e 500 -c 1 -i 25 -a 1 -x {0.0 2.0 -1 ------- null}
r -t 0.639 -s 1 -d 2 -p cbr -e 500 -c 1 -i 21 -a 1 -x {0.0 2.0 21 ------- null}
+ -t 0.64 -s 0 -d 1 -p cbr -e 500 -c 1 -i 28 -a 1 -x {0.0 2.0 28 ------- null}
- -t 0.64 -s 0 -d 1 -p cbr -e 500 -c 1 -i 28 -a 1 -x {0.0 2.0 28 ------- null}
h -t 0.64 -s 0 -d 1 -p cbr -e 500 -c 1 -i 28 -a 1 -x {0.0 2.0 -1 ------- null}
r -t 0.642 -s 0 -d 1 -p cbr -e 500 -c 1 -i 26 -a 1 -x {0.0 2.0 26 ------- null}
+ -t 0.642 -s 1 -d 2 -p cbr -e 500 -c 1 -i 26 -a 1 -x {0.0 2.0 26 ------- null}
- -t 0.642 -s 1 -d 2 -p cbr -e 500 -c 1 -i 26 -a 1 -x {0.0 2.0 26 ------- null}
h -t 0.642 -s 1 -d 2 -p cbr -e 500 -c 1 -i 26 -a 1 -x {0.0 2.0 -1 ------- null}
r -t 0.644 -s 1 -d 2 -p cbr -e 500 -c 1 -i 22 -a 1 -x {0.0 2.0 22 ------- null}
+ -t 0.645 -s 0 -d 1 -p cbr -e 500 -c 1 -i 29 -a 1 -x {0.0 2.0 29 ------- null}
- -t 0.645 -s 0 -d 1 -p cbr -e 500 -c 1 -i 29 -a 1 -x {0.0 2.0 29 ------- null}
h -t 0.645 -s 0 -d 1 -p cbr -e 500 -c 1 -i 29 -a 1 -x {0.0 2.0 -1 ------- null}
r -t 0.647 -s 0 -d 1 -p cbr -e 500 -c 1 -i 27 -a 1 -x {0.0 2.0 27 ------- null}
+ -t 0.647 -s 1 -d 2 -p cbr -e 500 -c 1 -i 27 -a 1 -x {0.0 2.0 27 ------- null}
- -t 0.647 -s 1 -d 2 -p cbr -e 500 -c 1 -i 27 -a 1 -x {0.0 2.0 27 ------- null}
h -t 0.647 -s 1 -d 2 -p cbr -e 500 -c 1 -i 27 -a 1 -x {0.0 2.0 -1 ------- null}
r -t 0.649 -s 1 -d 2 -p cbr -e 500 -c 1 -i 23 -a 1 -x {0.0 2.0 23 ------- null}
+ -t 0.65 -s 0 -d 1 -p cbr -e 500 -c 1 -i 30 -a 1 -x {0.0 2.0 30 ------- null}
- -t 0.65 -s 0 -d 1 -p cbr -e 500 -c 1 -i 30 -a 1 -x {0.0 2.0 30 ------- null}
h -t 0.65 -s 0 -d 1 -p cbr -e 500 -c 1 -i 30 -a 1 -x {0.0 2.0 -1 ------- null}
r -t 0.652 -s 0 -d 1 -p cbr -e 500 -c 1 -i 28 -a 1 -x {0.0 2.0 28 ------- null}
+ -t 0.652 -s 1 -d 2 -p cbr -e 500 -c 1 -i 28 -a 1 -x {0.0 2.0 28 ------- null}
- -t 0.652 -s 1 -d 2 -p cbr -e 500 -c 1 -i 28 -a 1 -x {0.0 2.0 28 ------- null}
h -t 0.652 -s 1 -d 2 -p cbr -e 500 -c 1 -i 28 -a 1 -x {0.0 2.0 -1 ------- null}
r -t 0.654 -s 1 -d 2 -p cbr -e 500 -c 1 -i 24 -a 1 -x {0.0 2.0 24 ------- null}
+ -t 0.655 -s 0 -d 1 -p cbr -e 500 -c 1 -i 31 -a 1 -x {0.0 2.0 31 ------- null}
- -t 0.655 -s 0 -d 1 -p cbr -e 500 -c 1 -i 31 -a 1 -x {0.0 2.0 31 ------- null}
h -t 0.655 -s 0 -d 1 -p cbr -e 500 -c 1 -i 31 -a 1 -x {0.0 2.0 -1 ------- null}
r -t 0.657 -s 0 -d 1 -p cbr -e 500 -c 1 -i 29 -a 1 -x {0.0 2.0 29 ------- null}
+ -t 0.657 -s 1 -d 2 -p cbr -e 500 -c 1 -i 29 -a 1 -x {0.0 2.0 29 ------- null}
- -t 0.657 -s 1 -d 2 -p cbr -e 500 -c 1 -i 29 -a 1 -x {0.0 2.0 29 ------- null}
h -t 0.657 -s 1 -d 2 -p cbr -e 500 -c 1 -i 29 -a 1 -x {0.0 2.0 -1 ------- null}
r -t 0.659 -s 1 -d 2 -p cbr -e 500 -c 1 -i 25 -a 1 -x {0.0 2.0 25 ------- null}
+ -t 0.66 -s 0 -d 1 -p cbr -e 500 -c 1 -i 32 -a 1 -x {0.0 2.0 32 ------- null}
- -t 0.66 -s 0 -d 1 -p cbr -e 500 -c 1 -i 32 -a 1 -x {0.0 2.0 32 ------- null}
h -t 0.66 -s 0 -d 1 -p cbr -e 500 -c 1 -i 32 -a 1 -x {0.0 2.0 -1 ------- null}
r -t 0.662 -s 0 -d 1 -p cbr -e 500 -c 1 -i 30 -a 1 -x {0.0 2.0 30 ------- null}
+ -t 0.662 -s 1 -d 2 -p cbr -e 500 -c 1 -i 30 -a 1 -x {0.0 2.0 30 ------- null}
- -t 0.662 -s 1 -d 2 -p cbr -e 500 -c 1 -i 30 -a 1 -x {0.0 2.0 30 ------- null}
h -t 0.662 -s 1 -d 2 -p cbr -e 500 -c 1 -i 30 -a 1 -x {0.0 2.0 -1 ------- null}
r -t 0.664 -s 1 -d 2 -p cbr -e 500 -c 1 -i 26 -a 1 -x {0.0 2.0 26 ------- null}
+ -t 0.665 -s 0 -d 1 -p cbr -e 500 -c 1 -i 33 -a 1 -x {0.0 2.0 33 ------- null}
- -t 0.665 -s 0 -d 1 -p cbr -e 500 -c 1 -i 33 -a 1 -x {0.0 2.0 33 ------- null}
h -t 0.665 -s 0 -d 1 -p cbr -e 500 -c 1 -i 33 -a 1 -x {0.0 2.0 -1 ------- null}
r -t 0.667 -s 0 -d 1 -p cbr -e 500 -c 1 -i 31 -a 1 -x {0.0 2.0 31 ------- null}
+ -t 0.667 -s 1 -d 2 -p cbr -e 500 -c 1 -i 31 -a 1 -x {0.0 2.0 31 ------- null}
- -t 0.667 -s 1 -d 2 -p cbr -e 500 -c 1 -i 31 -a 1 -x {0.0 2.0 31 ------- null}
h -t 0.667 -s 1 -d 2 -p cbr -e 500 -c 1 -i 31 -a 1 -x {0.0 2.0 -1 ------- null}
r -t 0.669 -s 1 -d 2 -p cbr -e 500 -c 1 -i 27 -a 1 -x {0.0 2.0 27 ------- null}
+ -t 0.67 -s 0 -d 1 -p cbr -e 500 -c 1 -i 34 -a 1 -x {0.0 2.0 34 ------- null}
- -t 0.67 -s 0 -d 1 -p cbr -e 500 -c 1 -i 34 -a 1 -x {0.0 2.0 34 ------- null}
h -t 0.67 -s 0 -d 1 -p cbr -e 500 -c 1 -i 34 -a 1 -x {0.0 2.0 -1 ------- null}
r -t 0.672 -s 0 -d 1 -p cbr -e 500 -c 1 -i 32 -a 1 -x {0.0 2.0 32 ------- null}
+ -t 0.672 -s 1 -d 2 -p cbr -e 500 -c 1 -i 32 -a 1 -x {0.0 2.0 32 ------- null}
- -t 0.672 -s 1 -d 2 -p cbr -e 500 -c 1 -i 32 -a 1 -x {0.0 2.0 32 ------- null}
h -t 0.672 -s 1 -d 2 -p cbr -e 500 -c 1 -i 32 -a 1 -x {0.0 2.0 -1 ------- null}
r -t 0.674 -s 1 -d 2 -p cbr -e 500 -c 1 -i 28 -a 1 -x {0.0 2.0 28 ------- null}
+ -t 0.675 -s 0 -d 1 -p cbr -e 500 -c 1 -i 35 -a 1 -x {0.0 2.0 35 ------- null}
- -t 0.675 -s 0 -d 1 -p cbr -e 500 -c 1 -i 35 -a 1 -x {0.0 2.0 35 ------- null}
h -t 0.675 -s 0 -d 1 -p cbr -e 500 -c 1 -i 35 -a 1 -x {0.0 2.0 -1 ------- null}
r -t 0.677 -s 0 -d 1 -p cbr -e 500 -c 1 -i 33 -a 1 -x {0.0 2.0 33 ------- null}
+ -t 0.677 -s 1 -d 2 -p cbr -e 500 -c 1 -i 33 -a 1 -x {0.0 2.0 33 ------- null}
- -t 0.677 -s 1 -d 2 -p cbr -e 500 -c 1 -i 33 -a 1 -x {0.0 2.0 33 ------- null}
h -t 0.677 -s 1 -d 2 -p cbr -e 500 -c 1 -i 33 -a 1 -x {0.0 2.0 -1 ------- null}
r -t 0.679 -s 1 -d 2 -p cbr -e 500 -c 1 -i 29 -a 1 -x {0.0 2.0 29 ------- null}
+ -t 0.68 -s 0 -d 1 -p cbr -e 500 -c 1 -i 36 -a 1 -x {0.0 2.0 36 ------- null}
- -t 0.68 -s 0 -d 1 -p cbr -e 500 -c 1 -i 36 -a 1 -x {0.0 2.0 36 ------- null}
h -t 0.68 -s 0 -d 1 -p cbr -e 500 -c 1 -i 36 -a 1 -x {0.0 2.0 -1 ------- null}
r -t 0.682 -s 0 -d 1 -p cbr -e 500 -c 1 -i 34 -a 1 -x {0.0 2.0 34 ------- null}
+ -t 0.682 -s 1 -d 2 -p cbr -e 500 -c 1 -i 34 -a 1 -x {0.0 2.0 34 ------- null}
- -t 0.682 -s 1 -d 2 -p cbr -e 500 -c 1 -i 34 -a 1 -x {0.0 2.0 34 ------- null}
h -t 0.682 -s 1 -d 2 -p cbr -e 500 -c 1 -i 34 -a 1 -x {0.0 2.0 -1 ------- null}
r -t 0.684 -s 1 -d 2 -p cbr -e 500 -c 1 -i 30 -a 1 -x {0.0 2.0 30 ------- null}
+ -t 0.685 -s 0 -d 1 -p cbr -e 500 -c 1 -i 37 -a 1 -x {0.0 2.0 37 ------- null}
- -t 0.685 -s 0 -d 1 -p cbr -e 500 -c 1 -i 37 -a 1 -x {0.0 2.0 37 ------- null}
h -t 0.685 -s 0 -d 1 -p cbr -e 500 -c 1 -i 37 -a 1 -x {0.0 2.0 -1 ------- null}
r -t 0.687 -s 0 -d 1 -p cbr -e 500 -c 1 -i 35 -a 1 -x {0.0 2.0 35 ------- null}
+ -t 0.687 -s 1 -d 2 -p cbr -e 500 -c 1 -i 35 -a 1 -x {0.0 2.0 35 ------- null}
- -t 0.687 -s 1 -d 2 -p cbr -e 500 -c 1 -i 35 -a 1 -x {0.0 2.0 35 ------- null}
h -t 0.687 -s 1 -d 2 -p cbr -e 500 -c 1 -i 35 -a 1 -x {0.0 2.0 -1 ------- null}
r -t 0.689 -s 1 -d 2 -p cbr -e 500 -c 1 -i 31 -a 1 -x {0.0 2.0 31 ------- null}
+ -t 0.69 -s 0 -d 1 -p cbr -e 500 -c 1 -i 38 -a 1 -x {0.0 2.0 38 ------- null}
- -t 0.69 -s 0 -d 1 -p cbr -e 500 -c 1 -i 38 -a 1 -x {0.0 2.0 38 ------- null}
h -t 0.69 -s 0 -d 1 -p cbr -e 500 -c 1 -i 38 -a 1 -x {0.0 2.0 -1 ------- null}
r -t 0.692 -s 0 -d 1 -p cbr -e 500 -c 1 -i 36 -a 1 -x {0.0 2.0 36 ------- null}
+ -t 0.692 -s 1 -d 2 -p cbr -e 500 -c 1 -i 36 -a 1 -x {0.0 2.0 36 ------- null}
- -t 0.692 -s 1 -d 2 -p cbr -e 500 -c 1 -i 36 -a 1 -x {0.0 2.0 36 ------- null}
h -t 0.692 -s 1 -d 2 -p cbr -e 500 -c 1 -i 36 -a 1 -x {0.0 2.0 -1 ------- null}
r -t 0.694 -s 1 -d 2 -p cbr -e 500 -c 1 -i 32 -a 1 -x {0.0 2.0 32 ------- null}
+ -t 0.695 -s 0 -d 1 -p cbr -e 500 -c 1 -i 39 -a 1 -x {0.0 2.0 39 ------- null}
- -t 0.695 -s 0 -d 1 -p cbr -e 500 -c 1 -i 39 -a 1 -x {0.0 2.0 39 ------- null}
h -t 0.695 -s 0 -d 1 -p cbr -e 500 -c 1 -i 39 -a 1 -x {0.0 2.0 -1 ------- null}
r -t 0.697 -s 0 -d 1 -p cbr -e 500 -c 1 -i 37 -a 1 -x {0.0 2.0 37 ------- null}
+ -t 0.697 -s 1 -d 2 -p cbr -e 500 -c 1 -i 37 -a 1 -x {0.0 2.0 37 ------- null}
- -t 0.697 -s 1 -d 2 -p cbr -e 500 -c 1 -i 37 -a 1 -x {0.0 2.0 37 ------- null}
h -t 0.697 -s 1 -d 2 -p cbr -e 500 -c 1 -i 37 -a 1 -x {0.0 2.0 -1 ------- null}
r -t 0.699 -s 1 -d 2 -p cbr -e 500 -c 1 -i 33 -a 1 -x {0.0 2.0 33 ------- null}
+ -t 0.7 -s 0 -d 1 -p cbr -e 500 -c 1 -i 40 -a 1 -x {0.0 2.0 40 ------- null}
- -t 0.7 -s 0 -d 1 -p cbr -e 500 -c 1 -i 40 -a 1 -x {0.0 2.0 40 ------- null}
h -t 0.7 -s 0 -d 1 -p cbr -e 500 -c 1 -i 40 -a 1 -x {0.0 2.0 -1 ------- null}
r -t 0.702 -s 0 -d 1 -p cbr -e 500 -c 1 -i 38 -a 1 -x {0.0 2.0 38 ------- null}
+ -t 0.702 -s 1 -d 2 -p cbr -e 500 -c 1 -i 38 -a 1 -x {0.0 2.0 38 ------- null}
- -t 0.702 -s 1 -d 2 -p cbr -e 500 -c 1 -i 38 -a 1 -x {0.0 2.0 38 ------- null}
h -t 0.702 -s 1 -d 2 -p cbr -e 500 -c 1 -i 38 -a 1 -x {0.0 2.0 -1 ------- null}
r -t 0.704 -s 1 -d 2 -p cbr -e 500 -c 1 -i 34 -a 1 -x {0.0 2.0 34 ------- null}
+ -t 0.705 -s 0 -d 1 -p cbr -e 500 -c 1 -i 41 -a 1 -x {0.0 2.0 41 ------- null}
- -t 0.705 -s 0 -d 1 -p cbr -e 500 -c 1 -i 41 -a 1 -x {0.0 2.0 41 ------- null}
h -t 0.705 -s 0 -d 1 -p cbr -e 500 -c 1 -i 41 -a 1 -x {0.0 2.0 -1 ------- null}
r -t 0.707 -s 0 -d 1 -p cbr -e 500 -c 1 -i 39 -a 1 -x {0.0 2.0 39 ------- null}
+ -t 0.707 -s 1 -d 2 -p cbr -e 500 -c 1 -i 39 -a 1 -x {0.0 2.0 39 ------- null}
- -t 0.707 -s 1 -d 2 -p cbr -e 500 -c 1 -i 39 -a 1 -x {0.0 2.0 39 ------- null}
h -t 0.707 -s 1 -d 2 -p cbr -e 500 -c 1 -i 39 -a 1 -x {0.0 2.0 -1 ------- null}
r -t 0.709 -s 1 -d 2 -p cbr -e 500 -c 1 -i 35 -a 1 -x {0.0 2.0 35 ------- null}
+ -t 0.71 -s 0 -d 1 -p cbr -e 500 -c 1 -i 42 -a 1 -x {0.0 2.0 42 ------- null}
- -t 0.71 -s 0 -d 1 -p cbr -e 500 -c 1 -i 42 -a 1 -x {0.0 2.0 42 ------- null}
h -t 0.71 -s 0 -d 1 -p cbr -e 500 -c 1 -i 42 -a 1 -x {0.0 2.0 -1 ------- null}
r -t 0.712 -s 0 -d 1 -p cbr -e 500 -c 1 -i 40 -a 1 -x {0.0 2.0 40 ------- null}
+ -t 0.712 -s 1 -d 2 -p cbr -e 500 -c 1 -i 40 -a 1 -x {0.0 2.0 40 ------- null}
- -t 0.712 -s 1 -d 2 -p cbr -e 500 -c 1 -i 40 -a 1 -x {0.0 2.0 40 ------- null}
h -t 0.712 -s 1 -d 2 -p cbr -e 500 -c 1 -i 40 -a 1 -x {0.0 2.0 -1 ------- null}
r -t 0.714 -s 1 -d 2 -p cbr -e 500 -c 1 -i 36 -a 1 -x {0.0 2.0 36 ------- null}
+ -t 0.715 -s 0 -d 1 -p cbr -e 500 -c 1 -i 43 -a 1 -x {0.0 2.0 43 ------- null}
- -t 0.715 -s 0 -d 1 -p cbr -e 500 -c 1 -i 43 -a 1 -x {0.0 2.0 43 ------- null}
h -t 0.715 -s 0 -d 1 -p cbr -e 500 -c 1 -i 43 -a 1 -x {0.0 2.0 -1 ------- null}
r -t 0.717 -s 0 -d 1 -p cbr -e 500 -c 1 -i 41 -a 1 -x {0.0 2.0 41 ------- null}
+ -t 0.717 -s 1 -d 2 -p cbr -e 500 -c 1 -i 41 -a 1 -x {0.0 2.0 41 ------- null}
- -t 0.717 -s 1 -d 2 -p cbr -e 500 -c 1 -i 41 -a 1 -x {0.0 2.0 41 ------- null}
h -t 0.717 -s 1 -d 2 -p cbr -e 500 -c 1 -i 41 -a 1 -x {0.0 2.0 -1 ------- null}
r -t 0.719 -s 1 -d 2 -p cbr -e 500 -c 1 -i 37 -a 1 -x {0.0 2.0 37 ------- null}
+ -t 0.72 -s 0 -d 1 -p cbr -e 500 -c 1 -i 44 -a 1 -x {0.0 2.0 44 ------- null}
- -t 0.72 -s 0 -d 1 -p cbr -e 500 -c 1 -i 44 -a 1 -x {0.0 2.0 44 ------- null}
h -t 0.72 -s 0 -d 1 -p cbr -e 500 -c 1 -i 44 -a 1 -x {0.0 2.0 -1 ------- null}
r -t 0.722 -s 0 -d 1 -p cbr -e 500 -c 1 -i 42 -a 1 -x {0.0 2.0 42 ------- null}
+ -t 0.722 -s 1 -d 2 -p cbr -e 500 -c 1 -i 42 -a 1 -x {0.0 2.0 42 ------- null}
- -t 0.722 -s 1 -d 2 -p cbr -e 500 -c 1 -i 42 -a 1 -x {0.0 2.0 42 ------- null}
h -t 0.722 -s 1 -d 2 -p cbr -e 500 -c 1 -i 42 -a 1 -x {0.0 2.0 -1 ------- null}
r -t 0.724 -s 1 -d 2 -p cbr -e 500 -c 1 -i 38 -a 1 -x {0.0 2.0 38 ------- null}
+ -t 0.725 -s 0 -d 1 -p cbr -e 500 -c 1 -i 45 -a 1 -x {0.0 2.0 45 ------- null}
- -t 0.725 -s 0 -d 1 -p cbr -e 500 -c 1 -i 45 -a 1 -x {0.0 2.0 45 ------- null}
h -t 0.725 -s 0 -d 1 -p cbr -e 500 -c 1 -i 45 -a 1 -x {0.0 2.0 -1 ------- null}
r -t 0.727 -s 0 -d 1 -p cbr -e 500 -c 1 -i 43 -a 1 -x {0.0 2.0 43 ------- null}
+ -t 0.727 -s 1 -d 2 -p cbr -e 500 -c 1 -i 43 -a 1 -x {0.0 2.0 43 ------- null}
- -t 0.727 -s 1 -d 2 -p cbr -e 500 -c 1 -i 43 -a 1 -x {0.0 2.0 43 ------- null}
h -t 0.727 -s 1 -d 2 -p cbr -e 500 -c 1 -i 43 -a 1 -x {0.0 2.0 -1 ------- null}
r -t 0.729 -s 1 -d 2 -p cbr -e 500 -c 1 -i 39 -a 1 -x {0.0 2.0 39 ------- null}
+ -t 0.73 -s 0 -d 1 -p cbr -e 500 -c 1 -i 46 -a 1 -x {0.0 2.0 46 ------- null}
- -t 0.73 -s 0 -d 1 -p cbr -e 500 -c 1 -i 46 -a 1 -x {0.0 2.0 46 ------- null}
h -t 0.73 -s 0 -d 1 -p cbr -e 500 -c 1 -i 46 -a 1 -x {0.0 2.0 -1 ------- null}
r -t 0.732 -s 0 -d 1 -p cbr -e 500 -c 1 -i 44 -a 1 -x {0.0 2.0 44 ------- null}
+ -t 0.732 -s 1 -d 2 -p cbr -e 500 -c 1 -i 44 -a 1 -x {0.0 2.0 44 ------- null}
- -t 0.732 -s 1 -d 2 -p cbr -e 500 -c 1 -i 44 -a 1 -x {0.0 2.0 44 ------- null}
h -t 0.732 -s 1 -d 2 -p cbr -e 500 -c 1 -i 44 -a 1 -x {0.0 2.0 -1 ------- null}
r -t 0.734 -s 1 -d 2 -p cbr -e 500 -c 1 -i 40 -a 1 -x {0.0 2.0 40 ------- null}
+ -t 0.735 -s 0 -d 1 -p cbr -e 500 -c 1 -i 47 -a 1 -x {0.0 2.0 47 ------- null}
- -t 0.735 -s 0 -d 1 -p cbr -e 500 -c 1 -i 47 -a 1 -x {0.0 2.0 47 ------- null}
h -t 0.735 -s 0 -d 1 -p cbr -e 500 -c 1 -i 47 -a 1 -x {0.0 2.0 -1 ------- null}
r -t 0.737 -s 0 -d 1 -p cbr -e 500 -c 1 -i 45 -a 1 -x {0.0 2.0 45 ------- null}
+ -t 0.737 -s 1 -d 2 -p cbr -e 500 -c 1 -i 45 -a 1 -x {0.0 2.0 45 ------- null}
- -t 0.737 -s 1 -d 2 -p cbr -e 500 -c 1 -i 45 -a 1 -x {0.0 2.0 45 ------- null}
h -t 0.737 -s 1 -d 2 -p cbr -e 500 -c 1 -i 45 -a 1 -x {0.0 2.0 -1 ------- null}
r -t 0.739 -s 1 -d 2 -p cbr -e 500 -c 1 -i 41 -a 1 -x {0.0 2.0 41 ------- null}
+ -t 0.74 -s 0 -d 1 -p cbr -e 500 -c 1 -i 48 -a 1 -x {0.0 2.0 48 ------- null}