+ 0.5 0 1 cbr 500 ------- 1 0.0 2.0 0 0
- 0.5 0 1 cbr 500 ------- 1 0.0 2.0 0 0
+ 0.505 0 1 cbr 500 ------- 1 0.0 2.0 1 1
+ 0.51 0 1 cbr 500 ------- 1 0.0 2.0 2 2
+ 0.515 0 1 cbr 500 ------- 1 0.0 2.0 3 3
- 0.516 0 1 cbr 500 ------- 1 0.0 2.0 1 1
+ 0.52 0 1 cbr 500 ------- 1 0.0 2.0 4 4
+ 0.525 0 1 cbr 500 ------- 1 0.0 2.0 5 5
r 0.526 0 1 cbr 500 ------- 1 0.0 2.0 0 0
+ 0.526 1 2 cbr 500 ------- 1 0.0 2.0 0 0
- 0.526 1 2 cbr 500 ------- 1 0.0 2.0 0 0
+ 0.53 0 1 cbr 500 ------- 1 0.0 2.0 6 6
- 0.532 0 1 cbr 500 ------- 1 0.0 2.0 2 2
+ 0.535 0 1 cbr 500 ------- 1 0.0 2.0 7 7
+ 0.54 0 1 cbr 500 ------- 1 0.0 2.0 8 8
r 0.542 0 1 cbr 500 ------- 1 0.0 2.0 1 1
+ 0.542 1 2 cbr 500 ------- 1 0.0 2.0 1 1
- 0.542 1 2 cbr 500 ------- 1 0.0 2.0 1 1
+ 0.545 0 1 cbr 500 ------- 1 0.0 2.0 9 9
- 0.548 0 1 cbr 500 ------- 1 0.0 2.0 3 3
+ 0.55 0 1 cbr 500 ------- 1 0.0 2.0 10 10
+ 0.555 0 1 cbr 500 ------- 1 0.0 2.0 11 11
r 0.558 0 1 cbr 500 ------- 1 0.0 2.0 2 2
+ 0.558 1 2 cbr 500 ------- 1 0.0 2.0 2 2
- 0.558 1 2 cbr 500 ------- 1 0.0 2.0 2 2
+ 0.56 0 1 cbr 500 ------- 1 0.0 2.0 12 12
r 0.562 1 2 cbr 500 ------- 1 0.0 2.0 0 0
- 0.564 0 1 cbr 500 ------- 1 0.0 2.0 4 4
+ 0.565 0 1 cbr 500 ------- 1 0.0 2.0 13 13
+ 0.57 0 1 cbr 500 ------- 1 0.0 2.0 14 14
r 0.574 0 1 cbr 500 ------- 1 0.0 2.0 3 3
+ 0.574 1 2 cbr 500 ------- 1 0.0 2.0 3 3
- 0.574 1 2 cbr 500 ------- 1 0.0 2.0 3 3
+ 0.575 0 1 cbr 500 ------- 1 0.0 2.0 15 15
r 0.578 1 2 cbr 500 ------- 1 0.0 2.0 1 1
- 0.58 0 1 cbr 500 ------- 1 0.0 2.0 5 5
+ 0.58 0 1 cbr 500 ------- 1 0.0 2.0 16 16
+ 0.585 0 1 cbr 500 ------- 1 0.0 2.0 17 17
r 0.59 0 1 cbr 500 ------- 1 0.0 2.0 4 4
+ 0.59 1 2 cbr 500 ------- 1 0.0 2.0 4 4
- 0.59 1 2 cbr 500 ------- 1 0.0 2.0 4 4
+ 0.59 0 1 cbr 500 ------- 1 0.0 2.0 18 18
r 0.594 1 2 cbr 500 ------- 1 0.0 2.0 2 2
+ 0.595 0 1 cbr 500 ------- 1 0.0 2.0 19 19
- 0.596 0 1 cbr 500 ------- 1 0.0 2.0 6 6
+ 0.6 0 1 cbr 500 ------- 1 0.0 2.0 20 20
+ 0.605 0 1 cbr 500 ------- 1 0.0 2.0 21 21
r 0.606 0 1 cbr 500 ------- 1 0.0 2.0 5 5
+ 0.606 1 2 cbr 500 ------- 1 0.0 2.0 5 5
- 0.606 1 2 cbr 500 ------- 1 0.0 2.0 5 5
r 0.61 1 2 cbr 500 ------- 1 0.0 2.0 3 3
+ 0.61 0 1 cbr 500 ------- 1 0.0 2.0 22 22
- 0.612 0 1 cbr 500 ------- 1 0.0 2.0 7 7
+ 0.615 0 1 cbr 500 ------- 1 0.0 2.0 23 23
+ 0.62 0 1 cbr 500 ------- 1 0.0 2.0 24 24
r 0.622 0 1 cbr 500 ------- 1 0.0 2.0 6 6
+ 0.622 1 2 cbr 500 ------- 1 0.0 2.0 6 6
- 0.622 1 2 cbr 500 ------- 1 0.0 2.0 6 6
+ 0.625 0 1 cbr 500 ------- 1 0.0 2.0 25 25
r 0.626 1 2 cbr 500 ------- 1 0.0 2.0 4 4
- 0.628 0 1 cbr 500 ------- 1 0.0 2.0 8 8
+ 0.63 0 1 cbr 500 ------- 1 0.0 2.0 26 26
+ 0.635 0 1 cbr 500 ------- 1 0.0 2.0 27 27
r 0.638 0 1 cbr 500 ------- 1 0.0 2.0 7 7
+ 0.638 1 2 cbr 500 ------- 1 0.0 2.0 7 7
- 0.638 1 2 cbr 500 ------- 1 0.0 2.0 7 7
+ 0.64 0 1 cbr 500 ------- 1 0.0 2.0 28 28
r 0.642 1 2 cbr 500 ------- 1 0.0 2.0 5 5
- 0.644 0 1 cbr 500 ------- 1 0.0 2.0 9 9
+ 0.645 0 1 cbr 500 ------- 1 0.0 2.0 29 29
+ 0.65 0 1 cbr 500 ------- 1 0.0 2.0 30 30
r 0.654 0 1 cbr 500 ------- 1 0.0 2.0 8 8
+ 0.654 1 2 cbr 500 ------- 1 0.0 2.0 8 8
- 0.654 1 2 cbr 500 ------- 1 0.0 2.0 8 8
+ 0.655 0 1 cbr 500 ------- 1 0.0 2.0 31 31
r 0.658 1 2 cbr 500 ------- 1 0.0 2.0 6 6
- 0.66 0 1 cbr 500 ------- 1 0.0 2.0 10 10
+ 0.66 0 1 cbr 500 ------- 1 0.0 2.0 32 32
+ 0.665 0 1 cbr 500 ------- 1 0.0 2.0 33 33
r 0.67 0 1 cbr 500 ------- 1 0.0 2.0 9 9
+ 0.67 1 2 cbr 500 ------- 1 0.0 2.0 9 9
- 0.67 1 2 cbr 500 ------- 1 0.0 2.0 9 9
+ 0.67 0 1 cbr 500 ------- 1 0.0 2.0 34 34
r 0.674 1 2 cbr 500 ------- 1 0.0 2.0 7 7
+ 0.675 0 1 cbr 500 ------- 1 0.0 2.0 35 35
- 0.676 0 1 cbr 500 ------- 1 0.0 2.0 11 11
+ 0.68 0 1 cbr 500 ------- 1 0.0 2.0 36 36
+ 0.685 0 1 cbr 500 ------- 1 0.0 2.0 37 37
r 0.686 0 1 cbr 500 ------- 1 0.0 2.0 10 10
+ 0.686 1 2 cbr 500 ------- 1 0.0 2.0 10 10
- 0.686 1 2 cbr 500 ------- 1 0.0 2.0 10 10
r 0.69 1 2 cbr 500 ------- 1 0.0 2.0 8 8
+ 0.69 0 1 cbr 500 ------- 1 0.0 2.0 38 38
- 0.692 0 1 cbr 500 ------- 1 0.0 2.0 12 12
+ 0.695 0 1 cbr 500 ------- 1 0.0 2.0 39 39
+ 0.7 0 1 cbr 500 ------- 1 0.0 2.0 40 40
r 0.702 0 1 cbr 500 ------- 1 0.0 2.0 11 11
+ 0.702 1 2 cbr 500 ------- 1 0.0 2.0 11 11
- 0.702 1 2 cbr 500 ------- 1 0.0 2.0 11 11
+ 0.705 0 1 cbr 500 ------- 1 0.0 2.0 41 41
r 0.706 1 2 cbr 500 ------- 1 0.0 2.0 9 9
- 0.708 0 1 cbr 500 ------- 1 0.0 2.0 13 13
+ 0.71 0 1 cbr 500 ------- 1 0.0 2.0 42 42
+ 0.715 0 1 cbr 500 ------- 1 0.0 2.0 43 43
r 0.718 0 1 cbr 500 ------- 1 0.0 2.0 12 12
+ 0.718 1 2 cbr 500 ------- 1 0.0 2.0 12 12
- 0.718 1 2 cbr 500 ------- 1 0.0 2.0 12 12
+ 0.72 0 1 cbr 500 ------- 1 0.0 2.0 44 44
r 0.722 1 2 cbr 500 ------- 1 0.0 2.0 10 10
- 0.724 0 1 cbr 500 ------- 1 0.0 2.0 14 14
+ 0.725 0 1 cbr 500 ------- 1 0.0 2.0 45 45
+ 0.73 0 1 cbr 500 ------- 1 0.0 2.0 46 46
r 0.734 0 1 cbr 500 ------- 1 0.0 2.0 13 13
+ 0.734 1 2 cbr 500 ------- 1 0.0 2.0 13 13
- 0.734 1 2 cbr 500 ------- 1 0.0 2.0 13 13
+ 0.735 0 1 cbr 500 ------- 1 0.0 2.0 47 47
r 0.738 1 2 cbr 500 ------- 1 0.0 2.0 11 11
- 0.74 0 1 cbr 500 ------- 1 0.0 2.0 15 15
+ 0.74 0 1 cbr 500 ------- 1 0.0 2.0 48 48
+ 0.745 0 1 cbr 500 ------- 1 0.0 2.0 49 49
r 0.75 0 1 cbr 500 ------- 1 0.0 2.0 14 14
+ 0.75 1 2 cbr 500 ------- 1 0.0 2.0 14 14
- 0.75 1 2 cbr 500 ------- 1 0.0 2.0 14 14
+ 0.75 0 1 cbr 500 ------- 1 0.0 2.0 50 50
r 0.754 1 2 cbr 500 ------- 1 0.0 2.0 12 12
+ 0.755 0 1 cbr 500 ------- 1 0.0 2.0 51 51
- 0.756 0 1 cbr 500 ------- 1 0.0 2.0 16 16
+ 0.76 0 1 cbr 500 ------- 1 0.0 2.0 52 52
+ 0.765 0 1 cbr 500 ------- 1 0.0 2.0 53 53
r 0.766 0 1 cbr 500 ------- 1 0.0 2.0 15 15
+ 0.766 1 2 cbr 500 ------- 1 0.0 2.0 15 15
- 0.766 1 2 cbr 500 ------- 1 0.0 2.0 15 15
r 0.77 1 2 cbr 500 ------- 1 0.0 2.0 13 13
+ 0.77 0 1 cbr 500 ------- 1 0.0 2.0 54 54
- 0.772 0 1 cbr 500 ------- 1 0.0 2.0 17 17
+ 0.775 0 1 cbr 500 ------- 1 0.0 2.0 55 55
+ 0.78 0 1 cbr 500 ------- 1 0.0 2.0 56 56
r 0.782 0 1 cbr 500 ------- 1 0.0 2.0 16 16
+ 0.782 1 2 cbr 500 ------- 1 0.0 2.0 16 16
- 0.782 1 2 cbr 500 ------- 1 0.0 2.0 16 16
+ 0.785 0 1 cbr 500 ------- 1 0.0 2.0 57 57
r 0.786 1 2 cbr 500 ------- 1 0.0 2.0 14 14
- 0.788 0 1 cbr 500 ------- 1 0.0 2.0 18 18
+ 0.79 0 1 cbr 500 ------- 1 0.0 2.0 58 58
+ 0.795 0 1 cbr 500 ------- 1 0.0 2.0 59 59
r 0.798 0 1 cbr 500 ------- 1 0.0 2.0 17 17
+ 0.798 1 2 cbr 500 ------- 1 0.0 2.0 17 17
- 0.798 1 2 cbr 500 ------- 1 0.0 2.0 17 17
+ 0.8 0 1 cbr 500 ------- 1 0.0 2.0 60 60
r 0.802 1 2 cbr 500 ------- 1 0.0 2.0 15 15
- 0.804 0 1 cbr 500 ------- 1 0.0 2.0 19 19
+ 0.805 0 1 cbr 500 ------- 1 0.0 2.0 61 61
+ 0.81 0 1 cbr 500 ------- 1 0.0 2.0 62 62
r 0.814 0 1 cbr 500 ------- 1 0.0 2.0 18 18
+ 0.814 1 2 cbr 500 ------- 1 0.0 2.0 18 18
- 0.814 1 2 cbr 500 ------- 1 0.0 2.0 18 18
+ 0.815 0 1 cbr 500 ------- 1 0.0 2.0 63 63
r 0.818 1 2 cbr 500 ------- 1 0.0 2.0 16 16
- 0.82 0 1 cbr 500 ------- 1 0.0 2.0 20 20
+ 0.82 0 1 cbr 500 ------- 1 0.0 2.0 64 64
+ 0.825 0 1 cbr 500 ------- 1 0.0 2.0 65 65
r 0.83 0 1 cbr 500 ------- 1 0.0 2.0 19 19
+ 0.83 1 2 cbr 500 ------- 1 0.0 2.0 19 19
- 0.83 1 2 cbr 500 ------- 1 0.0 2.0 19 19
+ 0.83 0 1 cbr 500 ------- 1 0.0 2.0 66 66
r 0.834 1 2 cbr 500 ------- 1 0.0 2.0 17 17
+ 0.835 0 1 cbr 500 ------- 1 0.0 2.0 67 67
- 0.836 0 1 cbr 500 ------- 1 0.0 2.0 21 21
+ 0.84 0 1 cbr 500 ------- 1 0.0 2.0 68 68
+ 0.845 0 1 cbr 500 ------- 1 0.0 2.0 69 69
r 0.846 0 1 cbr 500 ------- 1 0.0 2.0 20 20
+ 0.846 1 2 cbr 500 ------- 1 0.0 2.0 20 20
- 0.846 1 2 cbr 500 ------- 1 0.0 2.0 20 20
r 0.85 1 2 cbr 500 ------- 1 0.0 2.0 18 18
+ 0.85 0 1 cbr 500 ------- 1 0.0 2.0 70 70
- 0.852 0 1 cbr 500 ------- 1 0.0 2.0 22 22
+ 0.855 0 1 cbr 500 ------- 1 0.0 2.0 71 71
+ 0.86 0 1 cbr 500 ------- 1 0.0 2.0 72 72
d 0.86 0 1 cbr 500 ------- 1 0.0 2.0 72 72
r 0.862 0 1 cbr 500 ------- 1 0.0 2.0 21 21
+ 0.862 1 2 cbr 500 ------- 1 0.0 2.0 21 21
- 0.862 1 2 cbr 500 ------- 1 0.0 2.0 21 21
+ 0.865 0 1 cbr 500 ------- 1 0.0 2.0 73 73
d 0.865 0 1 cbr 500 ------- 1 0.0 2.0 73 73
r 0.866 1 2 cbr 500 ------- 1 0.0 2.0 19 19
- 0.868 0 1 cbr 500 ------- 1 0.0 2.0 23 23
+ 0.87 0 1 cbr 500 ------- 1 0.0 2.0 74 74
+ 0.875 0 1 cbr 500 ------- 1 0.0 2.0 75 75
d 0.875 0 1 cbr 500 ------- 1 0.0 2.0 75 75
r 0.878 0 1 cbr 500 ------- 1 0.0 2.0 22 22
+ 0.878 1 2 cbr 500 ------- 1 0.0 2.0 22 22
- 0.878 1 2 cbr 500 ------- 1 0.0 2.0 22 22
+ 0.88 0 1 cbr 500 ------- 1 0.0 2.0 76 76
d 0.88 0 1 cbr 500 ------- 1 0.0 2.0 76 76
r 0.882 1 2 cbr 500 ------- 1 0.0 2.0 20 20
- 0.884 0 1 cbr 500 ------- 1 0.0 2.0 24 24
+ 0.885 0 1 cbr 500 ------- 1 0.0 2.0 77 77
+ 0.89 0 1 cbr 500 ------- 1 0.0 2.0 78 78
d 0.89 0 1 cbr 500 ------- 1 0.0 2.0 78 78
r 0.894 0 1 cbr 500 ------- 1 0.0 2.0 23 23
+ 0.894 1 2 cbr 500 ------- 1 0.0 2.0 23 23
- 0.894 1 2 cbr 500 ------- 1 0.0 2.0 23 23
+ 0.895 0 1 cbr 500 ------- 1 0.0 2.0 79 79
d 0.895 0 1 cbr 500 ------- 1 0.0 2.0 79 79
r 0.898 1 2 cbr 500 ------- 1 0.0 2.0 21 21
- 0.9 0 1 cbr 500 ------- 1 0.0 2.0 25 25
+ 0.9 0 1 cbr 500 ------- 1 0.0 2.0 80 80
+ 0.905 0 1 cbr 500 ------- 1 0.0 2.0 81 81
d 0.905 0 1 cbr 500 ------- 1 0.0 2.0 81 81
r 0.91 0 1 cbr 500 ------- 1 0.0 2.0 24 24
+ 0.91 1 2 cbr 500 ------- 1 0.0 2.0 24 24
- 0.91 1 2 cbr 500 ------- 1 0.0 2.0 24 24
+ 0.91 0 1 cbr 500 ------- 1 0.0 2.0 82 82
d 0.91 0 1 cbr 500 ------- 1 0.0 2.0 82 82
r 0.914 1 2 cbr 500 ------- 1 0.0 2.0 22 22
+ 0.915 0 1 cbr 500 ------- 1 0.0 2.0 83 83
d 0.915 0 1 cbr 500 ------- 1 0.0 2.0 83 83
- 0.916 0 1 cbr 500 ------- 1 0.0 2.0 26 26
+ 0.92 0 1 cbr 500 ------- 1 0.0 2.0 84 84
+ 0.925 0 1 cbr 500 ------- 1 0.0 2.0 85 85
d 0.925 0 1 cbr 500 ------- 1 0.0 2.0 85 85
r 0.926 0 1 cbr 500 ------- 1 0.0 2.0 25 25
+ 0.926 1 2 cbr 500 ------- 1 0.0 2.0 25 25
- 0.926 1 2 cbr 500 ------- 1 0.0 2.0 25 25
r 0.93 1 2 cbr 500 ------- 1 0.0 2.0 23 23
+ 0.93 0 1 cbr 500 ------- 1 0.0 2.0 86 86
d 0.93 0 1 cbr 500 ------- 1 0.0 2.0 86 86
- 0.932 0 1 cbr 500 ------- 1 0.0 2.0 27 27
+ 0.935 0 1 cbr 500 ------- 1 0.0 2.0 87 87
+ 0.94 0 1 cbr 500 ------- 1 0.0 2.0 88 88
d 0.94 0 1 cbr 500 ------- 1 0.0 2.0 88 88
r 0.942 0 1 cbr 500 ------- 1 0.0 2.0 26 26
+ 0.942 1 2 cbr 500 ------- 1 0.0 2.0 26 26
- 0.942 1 2 cbr 500 ------- 1 0.0 2.0 26 26
+ 0.945 0 1 cbr 500 ------- 1 0.0 2.0 89 89
d 0.945 0 1 cbr 500 ------- 1 0.0 2.0 89 89
r 0.946 1 2 cbr 500 ------- 1 0.0 2.0 24 24
- 0.948 0 1 cbr 500 ------- 1 0.0 2.0 28 28
+ 0.95 0 1 cbr 500 ------- 1 0.0 2.0 90 90
+ 0.955 0 1 cbr 500 ------- 1 0.0 2.0 91 91
d 0.955 0 1 cbr 500 ------- 1 0.0 2.0 91 91
r 0.958 0 1 cbr 500 ------- 1 0.0 2.0 27 27
+ 0.958 1 2 cbr 500 ------- 1 0.0 2.0 27 27
- 0.958 1 2 cbr 500 ------- 1 0.0 2.0 27 27
+ 0.96 0 1 cbr 500 ------- 1 0.0 2.0 92 92
d 0.96 0 1 cbr 500 ------- 1 0.0 2.0 92 92
r 0.962 1 2 cbr 500 ------- 1 0.0 2.0 25 25
- 0.964 0 1 cbr 500 ------- 1 0.0 2.0 29 29
+ 0.965 0 1 cbr 500 ------- 1 0.0 2.0 93 93
+ 0.97 0 1 cbr 500 ------- 1 0.0 2.0 94 94
d 0.97 0 1 cbr 500 ------- 1 0.0 2.0 94 94
r 0.974 0 1 cbr 500 ------- 1 0.0 2.0 28 28
+ 0.974 1 2 cbr 500 ------- 1 0.0 2.0 28 28
- 0.974 1 2 cbr 500 ------- 1 0.0 2.0 28 28
+ 0.975 0 1 cbr 500 ------- 1 0.0 2.0 95 95
d 0.975 0 1 cbr 500 ------- 1 0.0 2.0 95 95
r 0.978 1 2 cbr 500 ------- 1 0.0 2.0 26 26
- 0.98 0 1 cbr 500 ------- 1 0.0 2.0 30 30
+ 0.98 0 1 cbr 500 ------- 1 0.0 2.0 96 96
+ 0.985 0 1 cbr 500 ------- 1 0.0 2.0 97 97
d 0.985 0 1 cbr 500 ------- 1 0.0 2.0 97 97
r 0.99 0 1 cbr 500 ------- 1 0.0 2.0 29 29
+ 0.99 1 2 cbr 500 ------- 1 0.0 2.0 29 29
- 0.99 1 2 cbr 500 ------- 1 0.0 2.0 29 29
+ 0.99 0 1 cbr 500 ------- 1 0.0 2.0 98 98
d 0.99 0 1 cbr 500 ------- 1 0.0 2.0 98 98
r 0.994 1 2 cbr 500 ------- 1 0.0 2.0 27 27
+ 0.995 0 1 cbr 500 ------- 1 0.0 2.0 99 99
d 0.995 0 1 cbr 500 ------- 1 0.0 2.0 99 99
- 0.996 0 1 cbr 500 ------- 1 0.0 2.0 31 31
+ 1 1 2 tcp 40 ------- 2 1.0 2.1 0 100
+ 1 0 1 cbr 500 ------- 1 0.0 2.0 100 101
+ 1.005 0 1 cbr 500 ------- 1 0.0 2.0 101 102
d 1.005 0 1 cbr 500 ------- 1 0.0 2.0 101 102
r 1.006 0 1 cbr 500 ------- 1 0.0 2.0 30 30
+ 1.006 1 2 cbr 500 ------- 1 0.0 2.0 30 30
- 1.006 1 2 tcp 40 ------- 2 1.0 2.1 0 100
- 1.00728 1 2 cbr 500 ------- 1 0.0 2.0 30 30
+ 1.01 0 1 cbr 500 ------- 1 0.0 2.0 102 103
d 1.01 0 1 cbr 500 ------- 1 0.0 2.0 102 103
r 1.01 1 2 cbr 500 ------- 1 0.0 2.0 28 28
- 1.012 0 1 cbr 500 ------- 1 0.0 2.0 32 32
+ 1.015 0 1 cbr 500 ------- 1 0.0 2.0 103 104
+ 1.02 0 1 cbr 500 ------- 1 0.0 2.0 104 105
d 1.02 0 1 cbr 500 ------- 1 0.0 2.0 104 105
r 1.022 0 1 cbr 500 ------- 1 0.0 2.0 31 31
+ 1.022 1 2 cbr 500 ------- 1 0.0 2.0 31 31
- 1.02328 1 2 cbr 500 ------- 1 0.0 2.0 31 31
+ 1.025 0 1 cbr 500 ------- 1 0.0 2.0 105 106
d 1.025 0 1 cbr 500 ------- 1 0.0 2.0 105 106
r 1.026 1 2 cbr 500 ------- 1 0.0 2.0 29 29
r 1.02728 1 2 tcp 40 ------- 2 1.0 2.1 0 100
+ 1.02728 2 1 ack 40 ------- 2 2.1 1.0 0 107
- 1.02728 2 1 ack 40 ------- 2 2.1 1.0 0 107
- 1.028 0 1 cbr 500 ------- 1 0.0 2.0 33 33
+ 1.03 0 1 cbr 500 ------- 1 0.0 2.0 106 108
+ 1.035 0 1 cbr 500 ------- 1 0.0 2.0 107 109
d 1.035 0 1 cbr 500 ------- 1 0.0 2.0 107 109
r 1.038 0 1 cbr 500 ------- 1 0.0 2.0 32 32
+ 1.038 1 2 cbr 500 ------- 1 0.0 2.0 32 32
- 1.03928 1 2 cbr 500 ------- 1 0.0 2.0 32 32
+ 1.04 0 1 cbr 500 ------- 1 0.0 2.0 108 110
d 1.04 0 1 cbr 500 ------- 1 0.0 2.0 108 110
r 1.04328 1 2 cbr 500 ------- 1 0.0 2.0 30 30
- 1.044 0 1 cbr 500 ------- 1 0.0 2.0 34 34
+ 1.045 0 1 cbr 500 ------- 1 0.0 2.0 109 111
r 1.04856 2 1 ack 40 ------- 2 2.1 1.0 0 107
+ 1.04856 1 2 tcp 1040 ------- 2 1.0 2.1 1 112
+ 1.04856 1 2 tcp 1040 ------- 2 1.0 2.1 2 113
+ 1.05 0 1 cbr 500 ------- 1 0.0 2.0 110 114
d 1.05 0 1 cbr 500 ------- 1 0.0 2.0 110 114
r 1.054 0 1 cbr 500 ------- 1 0.0 2.0 33 33
+ 1.054 1 2 cbr 500 ------- 1 0.0 2.0 33 33
+ 1.055 0 1 cbr 500 ------- 1 0.0 2.0 111 115
d 1.055 0 1 cbr 500 ------- 1 0.0 2.0 111 115
- 1.05528 1 2 tcp 1040 ------- 2 1.0 2.1 1 112
r 1.05928 1 2 cbr 500 ------- 1 0.0 2.0 31 31
+ 1.06 0 1 cbr 500 ------- 1 0.0 2.0 112 116
d 1.06 0 1 cbr 500 ------- 1 0.0 2.0 112 116
- 1.06 0 1 cbr 500 ------- 1 0.0 2.0 35 35
+ 1.065 0 1 cbr 500 ------- 1 0.0 2.0 113 117
+ 1.07 0 1 cbr 500 ------- 1 0.0 2.0 114 118
d 1.07 0 1 cbr 500 ------- 1 0.0 2.0 114 118
r 1.07 0 1 cbr 500 ------- 1 0.0 2.0 34 34
+ 1.07 1 2 cbr 500 ------- 1 0.0 2.0 34 34
+ 1.075 0 1 cbr 500 ------- 1 0.0 2.0 115 119
d 1.075 0 1 cbr 500 ------- 1 0.0 2.0 115 119
r 1.07528 1 2 cbr 500 ------- 1 0.0 2.0 32 32
- 1.076 0 1 cbr 500 ------- 1 0.0 2.0 36 36
+ 1.08 0 1 cbr 500 ------- 1 0.0 2.0 116 120
+ 1.085 0 1 cbr 500 ------- 1 0.0 2.0 117 121
d 1.085 0 1 cbr 500 ------- 1 0.0 2.0 117 121
r 1.086 0 1 cbr 500 ------- 1 0.0 2.0 35 35
+ 1.086 1 2 cbr 500 ------- 1 0.0 2.0 35 35
- 1.08856 1 2 tcp 1040 ------- 2 1.0 2.1 2 113
+ 1.09 0 1 cbr 500 ------- 1 0.0 2.0 118 122
d 1.09 0 1 cbr 500 ------- 1 0.0 2.0 118 122
- 1.092 0 1 cbr 500 ------- 1 0.0 2.0 37 37
+ 1.095 0 1 cbr 500 ------- 1 0.0 2.0 119 123
+ 1.1 0 1 cbr 500 ------- 1 0.0 2.0 120 124
d 1.1 0 1 cbr 500 ------- 1 0.0 2.0 120 124
r 1.102 0 1 cbr 500 ------- 1 0.0 2.0 36 36
+ 1.102 1 2 cbr 500 ------- 1 0.0 2.0 36 36
+ 1.105 0 1 cbr 500 ------- 1 0.0 2.0 121 125
d 1.105 0 1 cbr 500 ------- 1 0.0 2.0 121 125
- 1.108 0 1 cbr 500 ------- 1 0.0 2.0 38 38
r 1.10856 1 2 tcp 1040 ------- 2 1.0 2.1 1 112
+ 1.10856 2 1 ack 40 ------- 2 2.1 1.0 1 126
- 1.10856 2 1 ack 40 ------- 2 2.1 1.0 1 126
+ 1.11 0 1 cbr 500 ------- 1 0.0 2.0 122 127
+ 1.115 0 1 cbr 500 ------- 1 0.0 2.0 123 128
d 1.115 0 1 cbr 500 ------- 1 0.0 2.0 123 128
r 1.118 0 1 cbr 500 ------- 1 0.0 2.0 37 37
+ 1.118 1 2 cbr 500 ------- 1 0.0 2.0 37 37
+ 1.12 0 1 cbr 500 ------- 1 0.0 2.0 124 129
d 1.12 0 1 cbr 500 ------- 1 0.0 2.0 124 129
- 1.12184 1 2 cbr 500 ------- 1 0.0 2.0 33 33
- 1.124 0 1 cbr 500 ------- 1 0.0 2.0 39 39
+ 1.125 0 1 cbr 500 ------- 1 0.0 2.0 125 130
r 1.12984 2 1 ack 40 ------- 2 2.1 1.0 1 126
+ 1.12984 1 2 tcp 1040 ------- 2 1.0 2.1 3 131
+ 1.12984 1 2 tcp 1040 ------- 2 1.0 2.1 4 132
+ 1.13 0 1 cbr 500 ------- 1 0.0 2.0 126 133
d 1.13 0 1 cbr 500 ------- 1 0.0 2.0 126 133
r 1.134 0 1 cbr 500 ------- 1 0.0 2.0 38 38
+ 1.134 1 2 cbr 500 ------- 1 0.0 2.0 38 38
+ 1.135 0 1 cbr 500 ------- 1 0.0 2.0 127 134
d 1.135 0 1 cbr 500 ------- 1 0.0 2.0 127 134
- 1.13784 1 2 cbr 500 ------- 1 0.0 2.0 34 34
+ 1.14 0 1 cbr 500 ------- 1 0.0 2.0 128 135
d 1.14 0 1 cbr 500 ------- 1 0.0 2.0 128 135
- 1.14 0 1 cbr 500 ------- 1 0.0 2.0 40 40
r 1.14184 1 2 tcp 1040 ------- 2 1.0 2.1 2 113
+ 1.14184 2 1 ack 40 ------- 2 2.1 1.0 2 136
- 1.14184 2 1 ack 40 ------- 2 2.1 1.0 2 136
+ 1.145 0 1 cbr 500 ------- 1 0.0 2.0 129 137
+ 1.15 0 1 cbr 500 ------- 1 0.0 2.0 130 138
d 1.15 0 1 cbr 500 ------- 1 0.0 2.0 130 138
r 1.15 0 1 cbr 500 ------- 1 0.0 2.0 39 39
+ 1.15 1 2 cbr 500 ------- 1 0.0 2.0 39 39
- 1.15384 1 2 cbr 500 ------- 1 0.0 2.0 35 35
+ 1.155 0 1 cbr 500 ------- 1 0.0 2.0 131 139
d 1.155 0 1 cbr 500 ------- 1 0.0 2.0 131 139
- 1.156 0 1 cbr 500 ------- 1 0.0 2.0 41 41
r 1.15784 1 2 cbr 500 ------- 1 0.0 2.0 33 33
+ 1.16 0 1 cbr 500 ------- 1 0.0 2.0 132 140
r 1.16312 2 1 ack 40 ------- 2 2.1 1.0 2 136
+ 1.16312 1 2 tcp 1040 ------- 2 1.0 2.1 5 141
+ 1.16312 1 2 tcp 1040 ------- 2 1.0 2.1 6 142
+ 1.165 0 1 cbr 500 ------- 1 0.0 2.0 133 143
d 1.165 0 1 cbr 500 ------- 1 0.0 2.0 133 143
r 1.166 0 1 cbr 500 ------- 1 0.0 2.0 40 40
+ 1.166 1 2 cbr 500 ------- 1 0.0 2.0 40 40
- 1.16984 1 2 cbr 500 ------- 1 0.0 2.0 36 36
+ 1.17 0 1 cbr 500 ------- 1 0.0 2.0 134 144
d 1.17 0 1 cbr 500 ------- 1 0.0 2.0 134 144
- 1.172 0 1 cbr 500 ------- 1 0.0 2.0 42 42
r 1.17384 1 2 cbr 500 ------- 1 0.0 2.0 34 34
+ 1.175 0 1 cbr 500 ------- 1 0.0 2.0 135 145
+ 1.18 0 1 cbr 500 ------- 1 0.0 2.0 136 146
d 1.18 0 1 cbr 500 ------- 1 0.0 2.0 136 146
r 1.182 0 1 cbr 500 ------- 1 0.0 2.0 41 41
+ 1.182 1 2 cbr 500 ------- 1 0.0 2.0 41 41
+ 1.185 0 1 cbr 500 ------- 1 0.0 2.0 137 147
d 1.185 0 1 cbr 500 ------- 1 0.0 2.0 137 147
- 1.18584 1 2 cbr 500 ------- 1 0.0 2.0 37 37
- 1.188 0 1 cbr 500 ------- 1 0.0 2.0 43 43
r 1.18984 1 2 cbr 500 ------- 1 0.0 2.0 35 35
+ 1.19 0 1 cbr 500 ------- 1 0.0 2.0 138 148
+ 1.195 0 1 cbr 500 ------- 1 0.0 2.0 139 149
d 1.195 0 1 cbr 500 ------- 1 0.0 2.0 139 149
r 1.198 0 1 cbr 500 ------- 1 0.0 2.0 42 42
+ 1.198 1 2 cbr 500 ------- 1 0.0 2.0 42 42
+ 1.2 0 1 cbr 500 ------- 1 0.0 2.0 140 150
d 1.2 0 1 cbr 500 ------- 1 0.0 2.0 140 150
- 1.20184 1 2 tcp 1040 ------- 2 1.0 2.1 3 131
- 1.204 0 1 cbr 500 ------- 1 0.0 2.0 44 44
+ 1.205 0 1 cbr 500 ------- 1 0.0 2.0 141 151
r 1.20584 1 2 cbr 500 ------- 1 0.0 2.0 36 36
+ 1.21 0 1 cbr 500 ------- 1 0.0 2.0 142 152
d 1.21 0 1 cbr 500 ------- 1 0.0 2.0 142 152
r 1.214 0 1 cbr 500 ------- 1 0.0 2.0 43 43
+ 1.214 1 2 cbr 500 ------- 1 0.0 2.0 43 43
+ 1.215 0 1 cbr 500 ------- 1 0.0 2.0 143 153
d 1.215 0 1 cbr 500 ------- 1 0.0 2.0 143 153
+ 1.22 0 1 cbr 500 ------- 1 0.0 2.0 144 154
d 1.22 0 1 cbr 500 ------- 1 0.0 2.0 144 154
- 1.22 0 1 cbr 500 ------- 1 0.0 2.0 45 45
r 1.22184 1 2 cbr 500 ------- 1 0.0 2.0 37 37
+ 1.225 0 1 cbr 500 ------- 1 0.0 2.0 145 155
+ 1.23 0 1 cbr 500 ------- 1 0.0 2.0 146 156
d 1.23 0 1 cbr 500 ------- 1 0.0 2.0 146 156
r 1.23 0 1 cbr 500 ------- 1 0.0 2.0 44 44
+ 1.23 1 2 cbr 500 ------- 1 0.0 2.0 44 44
+ 1.235 0 1 cbr 500 ------- 1 0.0 2.0 147 157
d 1.235 0 1 cbr 500 ------- 1 0.0 2.0 147 157
- 1.23512 1 2 tcp 1040 ------- 2 1.0 2.1 4 132
- 1.236 0 1 cbr 500 ------- 1 0.0 2.0 46 46
+ 1.24 0 1 cbr 500 ------- 1 0.0 2.0 148 158
+ 1.245 0 1 cbr 500 ------- 1 0.0 2.0 149 159
d 1.245 0 1 cbr 500 ------- 1 0.0 2.0 149 159
r 1.246 0 1 cbr 500 ------- 1 0.0 2.0 45 45
+ 1.246 1 2 cbr 500 ------- 1 0.0 2.0 45 45
+ 1.25 0 1 cbr 500 ------- 1 0.0 2.0 150 160
d 1.25 0 1 cbr 500 ------- 1 0.0 2.0 150 160
- 1.252 0 1 cbr 500 ------- 1 0.0 2.0 47 47
+ 1.255 0 1 cbr 500 ------- 1 0.0 2.0 151 161
r 1.25512 1 2 tcp 1040 ------- 2 1.0 2.1 3 131
+ 1.25512 2 1 ack 40 ------- 2 2.1 1.0 3 162
- 1.25512 2 1 ack 40 ------- 2 2.1 1.0 3 162
+ 1.26 0 1 cbr 500 ------- 1 0.0 2.0 152 163
d 1.26 0 1 cbr 500 ------- 1 0.0 2.0 152 163
r 1.262 0 1 cbr 500 ------- 1 0.0 2.0 46 46
+ 1.262 1 2 cbr 500 ------- 1 0.0 2.0 46 46
+ 1.265 0 1 cbr 500 ------- 1 0.0 2.0 153 164
d 1.265 0 1 cbr 500 ------- 1 0.0 2.0 153 164
- 1.268 0 1 cbr 500 ------- 1 0.0 2.0 48 48
- 1.2684 1 2 cbr 500 ------- 1 0.0 2.0 38 38
+ 1.27 0 1 cbr 500 ------- 1 0.0 2.0 154 165
+ 1.275 0 1 cbr 500 ------- 1 0.0 2.0 155 166
d 1.275 0 1 cbr 500 ------- 1 0.0 2.0 155 166
r 1.2764 2 1 ack 40 ------- 2 2.1 1.0 3 162
+ 1.2764 1 2 tcp 1040 ------- 2 1.0 2.1 7 167
+ 1.2764 1 2 tcp 1040 ------- 2 1.0 2.1 8 168
r 1.278 0 1 cbr 500 ------- 1 0.0 2.0 47 47
+ 1.278 1 2 cbr 500 ------- 1 0.0 2.0 47 47
+ 1.28 0 1 cbr 500 ------- 1 0.0 2.0 156 169
d 1.28 0 1 cbr 500 ------- 1 0.0 2.0 156 169
- 1.284 0 1 cbr 500 ------- 1 0.0 2.0 49 49
- 1.2844 1 2 cbr 500 ------- 1 0.0 2.0 39 39
+ 1.285 0 1 cbr 500 ------- 1 0.0 2.0 157 170
r 1.2884 1 2 tcp 1040 ------- 2 1.0 2.1 4 132
+ 1.2884 2 1 ack 40 ------- 2 2.1 1.0 4 171
- 1.2884 2 1 ack 40 ------- 2 2.1 1.0 4 171
+ 1.29 0 1 cbr 500 ------- 1 0.0 2.0 158 172
d 1.29 0 1 cbr 500 ------- 1 0.0 2.0 158 172
r 1.294 0 1 cbr 500 ------- 1 0.0 2.0 48 48
+ 1.294 1 2 cbr 500 ------- 1 0.0 2.0 48 48
+ 1.295 0 1 cbr 500 ------- 1 0.0 2.0 159 173
d 1.295 0 1 cbr 500 ------- 1 0.0 2.0 159 173
+ 1.3 0 1 cbr 500 ------- 1 0.0 2.0 160 174
d 1.3 0 1 cbr 500 ------- 1 0.0 2.0 160 174
- 1.3 0 1 cbr 500 ------- 1 0.0 2.0 50 50
- 1.3004 1 2 tcp 1040 ------- 2 1.0 2.1 5 141
r 1.3044 1 2 cbr 500 ------- 1 0.0 2.0 38 38
+ 1.305 0 1 cbr 500 ------- 1 0.0 2.0 161 175
r 1.30968 2 1 ack 40 ------- 2 2.1 1.0 4 171
+ 1.30968 1 2 tcp 1040 ------- 2 1.0 2.1 9 176
+ 1.30968 1 2 tcp 1040 ------- 2 1.0 2.1 10 177
+ 1.31 0 1 cbr 500 ------- 1 0.0 2.0 162 178
d 1.31 0 1 cbr 500 ------- 1 0.0 2.0 162 178
r 1.31 0 1 cbr 500 ------- 1 0.0 2.0 49 49
+ 1.31 1 2 cbr 500 ------- 1 0.0 2.0 49 49
+ 1.315 0 1 cbr 500 ------- 1 0.0 2.0 163 179
d 1.315 0 1 cbr 500 ------- 1 0.0 2.0 163 179
- 1.316 0 1 cbr 500 ------- 1 0.0 2.0 51 51
+ 1.32 0 1 cbr 500 ------- 1 0.0 2.0 164 180
r 1.3204 1 2 cbr 500 ------- 1 0.0 2.0 39 39
+ 1.325 0 1 cbr 500 ------- 1 0.0 2.0 165 181
d 1.325 0 1 cbr 500 ------- 1 0.0 2.0 165 181
r 1.326 0 1 cbr 500 ------- 1 0.0 2.0 50 50
+ 1.326 1 2 cbr 500 ------- 1 0.0 2.0 50 50
+ 1.33 0 1 cbr 500 ------- 1 0.0 2.0 166 182
d 1.33 0 1 cbr 500 ------- 1 0.0 2.0 166 182
- 1.332 0 1 cbr 500 ------- 1 0.0 2.0 52 52
- 1.33368 1 2 tcp 1040 ------- 2 1.0 2.1 6 142
+ 1.335 0 1 cbr 500 ------- 1 0.0 2.0 167 183
+ 1.34 0 1 cbr 500 ------- 1 0.0 2.0 168 184
d 1.34 0 1 cbr 500 ------- 1 0.0 2.0 168 184
r 1.342 0 1 cbr 500 ------- 1 0.0 2.0 51 51
+ 1.342 1 2 cbr 500 ------- 1 0.0 2.0 51 51
+ 1.345 0 1 cbr 500 ------- 1 0.0 2.0 169 185
d 1.345 0 1 cbr 500 ------- 1 0.0 2.0 169 185
- 1.348 0 1 cbr 500 ------- 1 0.0 2.0 53 53
+ 1.35 0 1 cbr 500 ------- 1 0.0 2.0 170 186
r 1.35368 1 2 tcp 1040 ------- 2 1.0 2.1 5 141
+ 1.35368 2 1 ack 40 ------- 2 2.1 1.0 5 187
- 1.35368 2 1 ack 40 ------- 2 2.1 1.0 5 187
+ 1.355 0 1 cbr 500 ------- 1 0.0 2.0 171 188
d 1.355 0 1 cbr 500 ------- 1 0.0 2.0 171 188
r 1.358 0 1 cbr 500 ------- 1 0.0 2.0 52 52
+ 1.358 1 2 cbr 500 ------- 1 0.0 2.0 52 52
+ 1.36 0 1 cbr 500 ------- 1 0.0 2.0 172 189
d 1.36 0 1 cbr 500 ------- 1 0.0 2.0 172 189
- 1.364 0 1 cbr 500 ------- 1 0.0 2.0 54 54
+ 1.365 0 1 cbr 500 ------- 1 0.0 2.0 173 190
- 1.36696 1 2 cbr 500 ------- 1 0.0 2.0 40 40
+ 1.37 0 1 cbr 500 ------- 1 0.0 2.0 174 191
d 1.37 0 1 cbr 500 ------- 1 0.0 2.0 174 191
r 1.374 0 1 cbr 500 ------- 1 0.0 2.0 53 53
+ 1.374 1 2 cbr 500 ------- 1 0.0 2.0 53 53
r 1.37496 2 1 ack 40 ------- 2 2.1 1.0 5 187
+ 1.37496 1 2 tcp 1040 ------- 2 1.0 2.1 11 192
+ 1.37496 1 2 tcp 1040 ------- 2 1.0 2.1 12 193
+ 1.375 0 1 cbr 500 ------- 1 0.0 2.0 175 194
d 1.375 0 1 cbr 500 ------- 1 0.0 2.0 175 194
+ 1.38 0 1 cbr 500 ------- 1 0.0 2.0 176 195
d 1.38 0 1 cbr 500 ------- 1 0.0 2.0 176 195
- 1.38 0 1 cbr 500 ------- 1 0.0 2.0 55 55
- 1.38296 1 2 cbr 500 ------- 1 0.0 2.0 41 41
+ 1.385 0 1 cbr 500 ------- 1 0.0 2.0 177 196
r 1.38696 1 2 tcp 1040 ------- 2 1.0 2.1 6 142
+ 1.38696 2 1 ack 40 ------- 2 2.1 1.0 6 197
- 1.38696 2 1 ack 40 ------- 2 2.1 1.0 6 197
+ 1.39 0 1 cbr 500 ------- 1 0.0 2.0 178 198
d 1.39 0 1 cbr 500 ------- 1 0.0 2.0 178 198
r 1.39 0 1 cbr 500 ------- 1 0.0 2.0 54 54
+ 1.39 1 2 cbr 500 ------- 1 0.0 2.0 54 54
+ 1.395 0 1 cbr 500 ------- 1 0.0 2.0 179 199
d 1.395 0 1 cbr 500 ------- 1 0.0 2.0 179 199
- 1.396 0 1 cbr 500 ------- 1 0.0 2.0 56 56
- 1.39896 1 2 cbr 500 ------- 1 0.0 2.0 42 42
+ 1.4 0 1 cbr 500 ------- 1 0.0 2.0 180 200
r 1.40296 1 2 cbr 500 ------- 1 0.0 2.0 40 40
+ 1.405 0 1 cbr 500 ------- 1 0.0 2.0 181 201
d 1.405 0 1 cbr 500 ------- 1 0.0 2.0 181 201
r 1.406 0 1 cbr 500 ------- 1 0.0 2.0 55 55
+ 1.406 1 2 cbr 500 ------- 1 0.0 2.0 55 55
r 1.40824 2 1 ack 40 ------- 2 2.1 1.0 6 197
+ 1.40824 1 2 tcp 1040 ------- 2 1.0 2.1 13 202
d 1.40824 1 2 tcp 1040 ------- 2 1.0 2.1 13 202
+ 1.40824 1 2 tcp 1040 ------- 2 1.0 2.1 14 203
d 1.40824 1 2 tcp 1040 ------- 2 1.0 2.1 14 203
+ 1.41 0 1 cbr 500 ------- 1 0.0 2.0 182 204
d 1.41 0 1 cbr 500 ------- 1 0.0 2.0 182 204
- 1.412 0 1 cbr 500 ------- 1 0.0 2.0 57 57
- 1.41496 1 2 cbr 500 ------- 1 0.0 2.0 43 43
+ 1.415 0 1 cbr 500 ------- 1 0.0 2.0 183 205
r 1.41896 1 2 cbr 500 ------- 1 0.0 2.0 41 41
+ 1.42 0 1 cbr 500 ------- 1 0.0 2.0 184 206
d 1.42 0 1 cbr 500 ------- 1 0.0 2.0 184 206
r 1.422 0 1 cbr 500 ------- 1 0.0 2.0 56 56
+ 1.422 1 2 cbr 500 ------- 1 0.0 2.0 56 56
+ 1.425 0 1 cbr 500 ------- 1 0.0 2.0 185 207
d 1.425 0 1 cbr 500 ------- 1 0.0 2.0 185 207
- 1.428 0 1 cbr 500 ------- 1 0.0 2.0 58 58
+ 1.43 0 1 cbr 500 ------- 1 0.0 2.0 186 208
- 1.43096 1 2 cbr 500 ------- 1 0.0 2.0 44 44
r 1.43496 1 2 cbr 500 ------- 1 0.0 2.0 42 42
+ 1.435 0 1 cbr 500 ------- 1 0.0 2.0 187 209
d 1.435 0 1 cbr 500 ------- 1 0.0 2.0 187 209
r 1.438 0 1 cbr 500 ------- 1 0.0 2.0 57 57
+ 1.438 1 2 cbr 500 ------- 1 0.0 2.0 57 57
+ 1.44 0 1 cbr 500 ------- 1 0.0 2.0 188 210
d 1.44 0 1 cbr 500 ------- 1 0.0 2.0 188 210
- 1.444 0 1 cbr 500 ------- 1 0.0 2.0 59 59
+ 1.445 0 1 cbr 500 ------- 1 0.0 2.0 189 211
- 1.44696 1 2 cbr 500 ------- 1 0.0 2.0 45 45
+ 1.45 0 1 cbr 500 ------- 1 0.0 2.0 190 212
d 1.45 0 1 cbr 500 ------- 1 0.0 2.0 190 212
r 1.45096 1 2 cbr 500 ------- 1 0.0 2.0 43 43
r 1.454 0 1 cbr 500 ------- 1 0.0 2.0 58 58
+ 1.454 1 2 cbr 500 ------- 1 0.0 2.0 58 58
+ 1.455 0 1 cbr 500 ------- 1 0.0 2.0 191 213
d 1.455 0 1 cbr 500 ------- 1 0.0 2.0 191 213
+ 1.46 0 1 cbr 500 ------- 1 0.0 2.0 192 214
d 1.46 0 1 cbr 500 ------- 1 0.0 2.0 192 214
- 1.46 0 1 cbr 500 ------- 1 0.0 2.0 60 60
- 1.46296 1 2 cbr 500 ------- 1 0.0 2.0 46 46
+ 1.465 0 1 cbr 500 ------- 1 0.0 2.0 193 215
r 1.46696 1 2 cbr 500 ------- 1 0.0 2.0 44 44
+ 1.47 0 1 cbr 500 ------- 1 0.0 2.0 194 216
d 1.47 0 1 cbr 500 ------- 1 0.0 2.0 194 216
r 1.47 0 1 cbr 500 ------- 1 0.0 2.0 59 59
+ 1.47 1 2 cbr 500 ------- 1 0.0 2.0 59 59
+ 1.475 0 1 cbr 500 ------- 1 0.0 2.0 195 217
d 1.475 0 1 cbr 500 ------- 1 0.0 2.0 195 217
- 1.476 0 1 cbr 500 ------- 1 0.0 2.0 61 61
- 1.47896 1 2 tcp 1040 ------- 2 1.0 2.1 7 167
+ 1.48 0 1 cbr 500 ------- 1 0.0 2.0 196 218
r 1.48296 1 2 cbr 500 ------- 1 0.0 2.0 45 45
+ 1.485 0 1 cbr 500 ------- 1 0.0 2.0 197 219
d 1.485 0 1 cbr 500 ------- 1 0.0 2.0 197 219
r 1.486 0 1 cbr 500 ------- 1 0.0 2.0 60 60
+ 1.486 1 2 cbr 500 ------- 1 0.0 2.0 60 60
+ 1.49 0 1 cbr 500 ------- 1 0.0 2.0 198 220
d 1.49 0 1 cbr 500 ------- 1 0.0 2.0 198 220
- 1.492 0 1 cbr 500 ------- 1 0.0 2.0 62 62
+ 1.495 0 1 cbr 500 ------- 1 0.0 2.0 199 221
r 1.49896 1 2 cbr 500 ------- 1 0.0 2.0 46 46
+ 1.5 0 1 cbr 500 ------- 1 0.0 2.0 200 222
d 1.5 0 1 cbr 500 ------- 1 0.0 2.0 200 222
r 1.502 0 1 cbr 500 ------- 1 0.0 2.0 61 61
+ 1.502 1 2 cbr 500 ------- 1 0.0 2.0 61 61
d 1.502 1 2 cbr 500 ------- 1 0.0 2.0 61 61
+ 1.505 0 1 cbr 500 ------- 1 0.0 2.0 201 223
d 1.505 0 1 cbr 500 ------- 1 0.0 2.0 201 223
- 1.508 0 1 cbr 500 ------- 1 0.0 2.0 63 63
+ 1.51 0 1 cbr 500 ------- 1 0.0 2.0 202 224
- 1.51224 1 2 tcp 1040 ------- 2 1.0 2.1 8 168
+ 1.515 0 1 cbr 500 ------- 1 0.0 2.0 203 225
d 1.515 0 1 cbr 500 ------- 1 0.0 2.0 203 225
r 1.518 0 1 cbr 500 ------- 1 0.0 2.0 62 62
+ 1.518 1 2 cbr 500 ------- 1 0.0 2.0 62 62
+ 1.52 0 1 cbr 500 ------- 1 0.0 2.0 204 226
d 1.52 0 1 cbr 500 ------- 1 0.0 2.0 204 226
- 1.524 0 1 cbr 500 ------- 1 0.0 2.0 64 64
+ 1.525 0 1 cbr 500 ------- 1 0.0 2.0 205 227
+ 1.53 0 1 cbr 500 ------- 1 0.0 2.0 206 228
d 1.53 0 1 cbr 500 ------- 1 0.0 2.0 206 228
r 1.53224 1 2 tcp 1040 ------- 2 1.0 2.1 7 167
+ 1.53224 2 1 ack 40 ------- 2 2.1 1.0 7 229
- 1.53224 2 1 ack 40 ------- 2 2.1 1.0 7 229
r 1.534 0 1 cbr 500 ------- 1 0.0 2.0 63 63
+ 1.534 1 2 cbr 500 ------- 1 0.0 2.0 63 63
d 1.534 1 2 cbr 500 ------- 1 0.0 2.0 63 63
+ 1.535 0 1 cbr 500 ------- 1 0.0 2.0 207 230
d 1.535 0 1 cbr 500 ------- 1 0.0 2.0 207 230
+ 1.54 0 1 cbr 500 ------- 1 0.0 2.0 208 231
d 1.54 0 1 cbr 500 ------- 1 0.0 2.0 208 231
- 1.54 0 1 cbr 500 ------- 1 0.0 2.0 65 65
+ 1.545 0 1 cbr 500 ------- 1 0.0 2.0 209 232
- 1.54552 1 2 cbr 500 ------- 1 0.0 2.0 47 47
+ 1.55 0 1 cbr 500 ------- 1 0.0 2.0 210 233
d 1.55 0 1 cbr 500 ------- 1 0.0 2.0 210 233
r 1.55 0 1 cbr 500 ------- 1 0.0 2.0 64 64
+ 1.55 1 2 cbr 500 ------- 1 0.0 2.0 64 64
r 1.55352 2 1 ack 40 ------- 2 2.1 1.0 7 229
+ 1.55352 1 2 tcp 1040 ------- 2 1.0 2.1 15 234
d 1.55352 1 2 tcp 1040 ------- 2 1.0 2.1 15 234
+ 1.55352 1 2 tcp 1040 ------- 2 1.0 2.1 16 235
d 1.55352 1 2 tcp 1040 ------- 2 1.0 2.1 16 235
+ 1.555 0 1 cbr 500 ------- 1 0.0 2.0 211 236
d 1.555 0 1 cbr 500 ------- 1 0.0 2.0 211 236
- 1.556 0 1 cbr 500 ------- 1 0.0 2.0 66 66
+ 1.56 0 1 cbr 500 ------- 1 0.0 2.0 212 237
- 1.56152 1 2 cbr 500 ------- 1 0.0 2.0 48 48
+ 1.565 0 1 cbr 500 ------- 1 0.0 2.0 213 238
d 1.565 0 1 cbr 500 ------- 1 0.0 2.0 213 238
r 1.56552 1 2 tcp 1040 ------- 2 1.0 2.1 8 168
+ 1.56552 2 1 ack 40 ------- 2 2.1 1.0 8 239
- 1.56552 2 1 ack 40 ------- 2 2.1 1.0 8 239
r 1.566 0 1 cbr 500 ------- 1 0.0 2.0 65 65
+ 1.566 1 2 cbr 500 ------- 1 0.0 2.0 65 65
+ 1.57 0 1 cbr 500 ------- 1 0.0 2.0 214 240
d 1.57 0 1 cbr 500 ------- 1 0.0 2.0 214 240