+ 0.5 0 1 cbr 500 ------- 1 0.0 2.0 0 0
- 0.5 0 1 cbr 500 ------- 1 0.0 2.0 0 0
+ 0.505 0 1 cbr 500 ------- 1 0.0 2.0 1 1
- 0.505 0 1 cbr 500 ------- 1 0.0 2.0 1 1
+ 0.51 0 1 cbr 500 ------- 1 0.0 2.0 2 2
- 0.51 0 1 cbr 500 ------- 1 0.0 2.0 2 2
r 0.512667 0 1 cbr 500 ------- 1 0.0 2.0 0 0
+ 0.512667 1 2 cbr 500 ------- 1 0.0 2.0 0 0
- 0.512667 1 2 cbr 500 ------- 1 0.0 2.0 0 0
+ 0.515 0 1 cbr 500 ------- 1 0.0 2.0 3 3
- 0.515 0 1 cbr 500 ------- 1 0.0 2.0 3 3
r 0.517667 0 1 cbr 500 ------- 1 0.0 2.0 1 1
+ 0.517667 1 2 cbr 500 ------- 1 0.0 2.0 1 1
- 0.517667 1 2 cbr 500 ------- 1 0.0 2.0 1 1
+ 0.52 0 1 cbr 500 ------- 1 0.0 2.0 4 4
- 0.52 0 1 cbr 500 ------- 1 0.0 2.0 4 4
r 0.522667 0 1 cbr 500 ------- 1 0.0 2.0 2 2
+ 0.522667 1 2 cbr 500 ------- 1 0.0 2.0 2 2
- 0.522667 1 2 cbr 500 ------- 1 0.0 2.0 2 2
+ 0.525 0 1 cbr 500 ------- 1 0.0 2.0 5 5
- 0.525 0 1 cbr 500 ------- 1 0.0 2.0 5 5
r 0.527667 0 1 cbr 500 ------- 1 0.0 2.0 3 3
+ 0.527667 1 2 cbr 500 ------- 1 0.0 2.0 3 3
- 0.527667 1 2 cbr 500 ------- 1 0.0 2.0 3 3
+ 0.53 0 1 cbr 500 ------- 1 0.0 2.0 6 6
- 0.53 0 1 cbr 500 ------- 1 0.0 2.0 6 6
r 0.532667 0 1 cbr 500 ------- 1 0.0 2.0 4 4
+ 0.532667 1 2 cbr 500 ------- 1 0.0 2.0 4 4
- 0.532667 1 2 cbr 500 ------- 1 0.0 2.0 4 4
+ 0.535 0 1 cbr 500 ------- 1 0.0 2.0 7 7
- 0.535 0 1 cbr 500 ------- 1 0.0 2.0 7 7
r 0.535333 1 2 cbr 500 ------- 1 0.0 2.0 0 0
r 0.537667 0 1 cbr 500 ------- 1 0.0 2.0 5 5
+ 0.537667 1 2 cbr 500 ------- 1 0.0 2.0 5 5
- 0.537667 1 2 cbr 500 ------- 1 0.0 2.0 5 5
+ 0.54 0 1 cbr 500 ------- 1 0.0 2.0 8 8
- 0.54 0 1 cbr 500 ------- 1 0.0 2.0 8 8
r 0.540333 1 2 cbr 500 ------- 1 0.0 2.0 1 1
r 0.542667 0 1 cbr 500 ------- 1 0.0 2.0 6 6
+ 0.542667 1 2 cbr 500 ------- 1 0.0 2.0 6 6
- 0.542667 1 2 cbr 500 ------- 1 0.0 2.0 6 6
+ 0.545 0 1 cbr 500 ------- 1 0.0 2.0 9 9
- 0.545 0 1 cbr 500 ------- 1 0.0 2.0 9 9
r 0.545333 1 2 cbr 500 ------- 1 0.0 2.0 2 2
r 0.547667 0 1 cbr 500 ------- 1 0.0 2.0 7 7
+ 0.547667 1 2 cbr 500 ------- 1 0.0 2.0 7 7
- 0.547667 1 2 cbr 500 ------- 1 0.0 2.0 7 7
+ 0.55 0 1 cbr 500 ------- 1 0.0 2.0 10 10
- 0.55 0 1 cbr 500 ------- 1 0.0 2.0 10 10
r 0.550333 1 2 cbr 500 ------- 1 0.0 2.0 3 3
r 0.552667 0 1 cbr 500 ------- 1 0.0 2.0 8 8
+ 0.552667 1 2 cbr 500 ------- 1 0.0 2.0 8 8
- 0.552667 1 2 cbr 500 ------- 1 0.0 2.0 8 8
+ 0.555 0 1 cbr 500 ------- 1 0.0 2.0 11 11
- 0.555 0 1 cbr 500 ------- 1 0.0 2.0 11 11
r 0.555333 1 2 cbr 500 ------- 1 0.0 2.0 4 4
r 0.557667 0 1 cbr 500 ------- 1 0.0 2.0 9 9
+ 0.557667 1 2 cbr 500 ------- 1 0.0 2.0 9 9
- 0.557667 1 2 cbr 500 ------- 1 0.0 2.0 9 9
+ 0.56 0 1 cbr 500 ------- 1 0.0 2.0 12 12
- 0.56 0 1 cbr 500 ------- 1 0.0 2.0 12 12
r 0.560333 1 2 cbr 500 ------- 1 0.0 2.0 5 5
r 0.562667 0 1 cbr 500 ------- 1 0.0 2.0 10 10
+ 0.562667 1 2 cbr 500 ------- 1 0.0 2.0 10 10
- 0.562667 1 2 cbr 500 ------- 1 0.0 2.0 10 10
+ 0.565 0 1 cbr 500 ------- 1 0.0 2.0 13 13
- 0.565 0 1 cbr 500 ------- 1 0.0 2.0 13 13
r 0.565333 1 2 cbr 500 ------- 1 0.0 2.0 6 6
r 0.567667 0 1 cbr 500 ------- 1 0.0 2.0 11 11
+ 0.567667 1 2 cbr 500 ------- 1 0.0 2.0 11 11
- 0.567667 1 2 cbr 500 ------- 1 0.0 2.0 11 11
+ 0.57 0 1 cbr 500 ------- 1 0.0 2.0 14 14
- 0.57 0 1 cbr 500 ------- 1 0.0 2.0 14 14
r 0.570333 1 2 cbr 500 ------- 1 0.0 2.0 7 7
r 0.572667 0 1 cbr 500 ------- 1 0.0 2.0 12 12
+ 0.572667 1 2 cbr 500 ------- 1 0.0 2.0 12 12
- 0.572667 1 2 cbr 500 ------- 1 0.0 2.0 12 12
+ 0.575 0 1 cbr 500 ------- 1 0.0 2.0 15 15
- 0.575 0 1 cbr 500 ------- 1 0.0 2.0 15 15
r 0.575333 1 2 cbr 500 ------- 1 0.0 2.0 8 8
r 0.577667 0 1 cbr 500 ------- 1 0.0 2.0 13 13
+ 0.577667 1 2 cbr 500 ------- 1 0.0 2.0 13 13
- 0.577667 1 2 cbr 500 ------- 1 0.0 2.0 13 13
+ 0.58 0 1 cbr 500 ------- 1 0.0 2.0 16 16
- 0.58 0 1 cbr 500 ------- 1 0.0 2.0 16 16
r 0.580333 1 2 cbr 500 ------- 1 0.0 2.0 9 9
r 0.582667 0 1 cbr 500 ------- 1 0.0 2.0 14 14
+ 0.582667 1 2 cbr 500 ------- 1 0.0 2.0 14 14
- 0.582667 1 2 cbr 500 ------- 1 0.0 2.0 14 14
+ 0.585 0 1 cbr 500 ------- 1 0.0 2.0 17 17
- 0.585 0 1 cbr 500 ------- 1 0.0 2.0 17 17
r 0.585333 1 2 cbr 500 ------- 1 0.0 2.0 10 10
r 0.587667 0 1 cbr 500 ------- 1 0.0 2.0 15 15
+ 0.587667 1 2 cbr 500 ------- 1 0.0 2.0 15 15
- 0.587667 1 2 cbr 500 ------- 1 0.0 2.0 15 15
+ 0.59 0 1 cbr 500 ------- 1 0.0 2.0 18 18
- 0.59 0 1 cbr 500 ------- 1 0.0 2.0 18 18
r 0.590333 1 2 cbr 500 ------- 1 0.0 2.0 11 11
r 0.592667 0 1 cbr 500 ------- 1 0.0 2.0 16 16
+ 0.592667 1 2 cbr 500 ------- 1 0.0 2.0 16 16
- 0.592667 1 2 cbr 500 ------- 1 0.0 2.0 16 16
+ 0.595 0 1 cbr 500 ------- 1 0.0 2.0 19 19
- 0.595 0 1 cbr 500 ------- 1 0.0 2.0 19 19
r 0.595333 1 2 cbr 500 ------- 1 0.0 2.0 12 12
r 0.597667 0 1 cbr 500 ------- 1 0.0 2.0 17 17
+ 0.597667 1 2 cbr 500 ------- 1 0.0 2.0 17 17
- 0.597667 1 2 cbr 500 ------- 1 0.0 2.0 17 17
+ 0.6 0 1 cbr 500 ------- 1 0.0 2.0 20 20
- 0.6 0 1 cbr 500 ------- 1 0.0 2.0 20 20
r 0.600333 1 2 cbr 500 ------- 1 0.0 2.0 13 13
r 0.602667 0 1 cbr 500 ------- 1 0.0 2.0 18 18
+ 0.602667 1 2 cbr 500 ------- 1 0.0 2.0 18 18
- 0.602667 1 2 cbr 500 ------- 1 0.0 2.0 18 18
+ 0.605 0 1 cbr 500 ------- 1 0.0 2.0 21 21
- 0.605 0 1 cbr 500 ------- 1 0.0 2.0 21 21
r 0.605333 1 2 cbr 500 ------- 1 0.0 2.0 14 14
r 0.607667 0 1 cbr 500 ------- 1 0.0 2.0 19 19
+ 0.607667 1 2 cbr 500 ------- 1 0.0 2.0 19 19
- 0.607667 1 2 cbr 500 ------- 1 0.0 2.0 19 19
+ 0.61 0 1 cbr 500 ------- 1 0.0 2.0 22 22
- 0.61 0 1 cbr 500 ------- 1 0.0 2.0 22 22
r 0.610333 1 2 cbr 500 ------- 1 0.0 2.0 15 15
r 0.612667 0 1 cbr 500 ------- 1 0.0 2.0 20 20
+ 0.612667 1 2 cbr 500 ------- 1 0.0 2.0 20 20
- 0.612667 1 2 cbr 500 ------- 1 0.0 2.0 20 20
+ 0.615 0 1 cbr 500 ------- 1 0.0 2.0 23 23
- 0.615 0 1 cbr 500 ------- 1 0.0 2.0 23 23
r 0.615333 1 2 cbr 500 ------- 1 0.0 2.0 16 16
r 0.617667 0 1 cbr 500 ------- 1 0.0 2.0 21 21
+ 0.617667 1 2 cbr 500 ------- 1 0.0 2.0 21 21
- 0.617667 1 2 cbr 500 ------- 1 0.0 2.0 21 21
+ 0.62 0 1 cbr 500 ------- 1 0.0 2.0 24 24
- 0.62 0 1 cbr 500 ------- 1 0.0 2.0 24 24
r 0.620333 1 2 cbr 500 ------- 1 0.0 2.0 17 17
r 0.622667 0 1 cbr 500 ------- 1 0.0 2.0 22 22
+ 0.622667 1 2 cbr 500 ------- 1 0.0 2.0 22 22
- 0.622667 1 2 cbr 500 ------- 1 0.0 2.0 22 22
+ 0.625 0 1 cbr 500 ------- 1 0.0 2.0 25 25
- 0.625 0 1 cbr 500 ------- 1 0.0 2.0 25 25
r 0.625333 1 2 cbr 500 ------- 1 0.0 2.0 18 18
r 0.627667 0 1 cbr 500 ------- 1 0.0 2.0 23 23
+ 0.627667 1 2 cbr 500 ------- 1 0.0 2.0 23 23
- 0.627667 1 2 cbr 500 ------- 1 0.0 2.0 23 23
+ 0.63 0 1 cbr 500 ------- 1 0.0 2.0 26 26
- 0.63 0 1 cbr 500 ------- 1 0.0 2.0 26 26
r 0.630333 1 2 cbr 500 ------- 1 0.0 2.0 19 19
r 0.632667 0 1 cbr 500 ------- 1 0.0 2.0 24 24
+ 0.632667 1 2 cbr 500 ------- 1 0.0 2.0 24 24
- 0.632667 1 2 cbr 500 ------- 1 0.0 2.0 24 24
+ 0.635 0 1 cbr 500 ------- 1 0.0 2.0 27 27
- 0.635 0 1 cbr 500 ------- 1 0.0 2.0 27 27
r 0.635333 1 2 cbr 500 ------- 1 0.0 2.0 20 20
r 0.637667 0 1 cbr 500 ------- 1 0.0 2.0 25 25
+ 0.637667 1 2 cbr 500 ------- 1 0.0 2.0 25 25
- 0.637667 1 2 cbr 500 ------- 1 0.0 2.0 25 25
+ 0.64 0 1 cbr 500 ------- 1 0.0 2.0 28 28
- 0.64 0 1 cbr 500 ------- 1 0.0 2.0 28 28
r 0.640333 1 2 cbr 500 ------- 1 0.0 2.0 21 21
r 0.642667 0 1 cbr 500 ------- 1 0.0 2.0 26 26
+ 0.642667 1 2 cbr 500 ------- 1 0.0 2.0 26 26
- 0.642667 1 2 cbr 500 ------- 1 0.0 2.0 26 26
+ 0.645 0 1 cbr 500 ------- 1 0.0 2.0 29 29
- 0.645 0 1 cbr 500 ------- 1 0.0 2.0 29 29
r 0.645333 1 2 cbr 500 ------- 1 0.0 2.0 22 22
r 0.647667 0 1 cbr 500 ------- 1 0.0 2.0 27 27
+ 0.647667 1 2 cbr 500 ------- 1 0.0 2.0 27 27
- 0.647667 1 2 cbr 500 ------- 1 0.0 2.0 27 27
+ 0.65 0 1 cbr 500 ------- 1 0.0 2.0 30 30
- 0.65 0 1 cbr 500 ------- 1 0.0 2.0 30 30
r 0.650333 1 2 cbr 500 ------- 1 0.0 2.0 23 23
r 0.652667 0 1 cbr 500 ------- 1 0.0 2.0 28 28
+ 0.652667 1 2 cbr 500 ------- 1 0.0 2.0 28 28
- 0.652667 1 2 cbr 500 ------- 1 0.0 2.0 28 28
+ 0.655 0 1 cbr 500 ------- 1 0.0 2.0 31 31
- 0.655 0 1 cbr 500 ------- 1 0.0 2.0 31 31
r 0.655333 1 2 cbr 500 ------- 1 0.0 2.0 24 24
r 0.657667 0 1 cbr 500 ------- 1 0.0 2.0 29 29
+ 0.657667 1 2 cbr 500 ------- 1 0.0 2.0 29 29
- 0.657667 1 2 cbr 500 ------- 1 0.0 2.0 29 29
+ 0.66 0 1 cbr 500 ------- 1 0.0 2.0 32 32
- 0.66 0 1 cbr 500 ------- 1 0.0 2.0 32 32
r 0.660333 1 2 cbr 500 ------- 1 0.0 2.0 25 25
r 0.662667 0 1 cbr 500 ------- 1 0.0 2.0 30 30
+ 0.662667 1 2 cbr 500 ------- 1 0.0 2.0 30 30
- 0.662667 1 2 cbr 500 ------- 1 0.0 2.0 30 30
+ 0.665 0 1 cbr 500 ------- 1 0.0 2.0 33 33
- 0.665 0 1 cbr 500 ------- 1 0.0 2.0 33 33
r 0.665333 1 2 cbr 500 ------- 1 0.0 2.0 26 26
r 0.667667 0 1 cbr 500 ------- 1 0.0 2.0 31 31
+ 0.667667 1 2 cbr 500 ------- 1 0.0 2.0 31 31
- 0.667667 1 2 cbr 500 ------- 1 0.0 2.0 31 31
+ 0.67 0 1 cbr 500 ------- 1 0.0 2.0 34 34
- 0.67 0 1 cbr 500 ------- 1 0.0 2.0 34 34
r 0.670333 1 2 cbr 500 ------- 1 0.0 2.0 27 27
r 0.672667 0 1 cbr 500 ------- 1 0.0 2.0 32 32
+ 0.672667 1 2 cbr 500 ------- 1 0.0 2.0 32 32
- 0.672667 1 2 cbr 500 ------- 1 0.0 2.0 32 32
+ 0.675 0 1 cbr 500 ------- 1 0.0 2.0 35 35
- 0.675 0 1 cbr 500 ------- 1 0.0 2.0 35 35
r 0.675333 1 2 cbr 500 ------- 1 0.0 2.0 28 28
r 0.677667 0 1 cbr 500 ------- 1 0.0 2.0 33 33
+ 0.677667 1 2 cbr 500 ------- 1 0.0 2.0 33 33
- 0.677667 1 2 cbr 500 ------- 1 0.0 2.0 33 33
+ 0.68 0 1 cbr 500 ------- 1 0.0 2.0 36 36
- 0.68 0 1 cbr 500 ------- 1 0.0 2.0 36 36
r 0.680333 1 2 cbr 500 ------- 1 0.0 2.0 29 29
r 0.682667 0 1 cbr 500 ------- 1 0.0 2.0 34 34
+ 0.682667 1 2 cbr 500 ------- 1 0.0 2.0 34 34
- 0.682667 1 2 cbr 500 ------- 1 0.0 2.0 34 34
+ 0.685 0 1 cbr 500 ------- 1 0.0 2.0 37 37
- 0.685 0 1 cbr 500 ------- 1 0.0 2.0 37 37
r 0.685333 1 2 cbr 500 ------- 1 0.0 2.0 30 30
r 0.687667 0 1 cbr 500 ------- 1 0.0 2.0 35 35
+ 0.687667 1 2 cbr 500 ------- 1 0.0 2.0 35 35
- 0.687667 1 2 cbr 500 ------- 1 0.0 2.0 35 35
+ 0.69 0 1 cbr 500 ------- 1 0.0 2.0 38 38
- 0.69 0 1 cbr 500 ------- 1 0.0 2.0 38 38
r 0.690333 1 2 cbr 500 ------- 1 0.0 2.0 31 31
r 0.692667 0 1 cbr 500 ------- 1 0.0 2.0 36 36
+ 0.692667 1 2 cbr 500 ------- 1 0.0 2.0 36 36
- 0.692667 1 2 cbr 500 ------- 1 0.0 2.0 36 36
+ 0.695 0 1 cbr 500 ------- 1 0.0 2.0 39 39
- 0.695 0 1 cbr 500 ------- 1 0.0 2.0 39 39
r 0.695333 1 2 cbr 500 ------- 1 0.0 2.0 32 32
r 0.697667 0 1 cbr 500 ------- 1 0.0 2.0 37 37
+ 0.697667 1 2 cbr 500 ------- 1 0.0 2.0 37 37
- 0.697667 1 2 cbr 500 ------- 1 0.0 2.0 37 37
+ 0.7 0 1 cbr 500 ------- 1 0.0 2.0 40 40
- 0.7 0 1 cbr 500 ------- 1 0.0 2.0 40 40
r 0.700333 1 2 cbr 500 ------- 1 0.0 2.0 33 33
r 0.702667 0 1 cbr 500 ------- 1 0.0 2.0 38 38
+ 0.702667 1 2 cbr 500 ------- 1 0.0 2.0 38 38
- 0.702667 1 2 cbr 500 ------- 1 0.0 2.0 38 38
+ 0.705 0 1 cbr 500 ------- 1 0.0 2.0 41 41
- 0.705 0 1 cbr 500 ------- 1 0.0 2.0 41 41
r 0.705333 1 2 cbr 500 ------- 1 0.0 2.0 34 34
r 0.707667 0 1 cbr 500 ------- 1 0.0 2.0 39 39
+ 0.707667 1 2 cbr 500 ------- 1 0.0 2.0 39 39
- 0.707667 1 2 cbr 500 ------- 1 0.0 2.0 39 39
+ 0.71 0 1 cbr 500 ------- 1 0.0 2.0 42 42
- 0.71 0 1 cbr 500 ------- 1 0.0 2.0 42 42
r 0.710333 1 2 cbr 500 ------- 1 0.0 2.0 35 35
r 0.712667 0 1 cbr 500 ------- 1 0.0 2.0 40 40
+ 0.712667 1 2 cbr 500 ------- 1 0.0 2.0 40 40
- 0.712667 1 2 cbr 500 ------- 1 0.0 2.0 40 40
+ 0.715 0 1 cbr 500 ------- 1 0.0 2.0 43 43
- 0.715 0 1 cbr 500 ------- 1 0.0 2.0 43 43
r 0.715333 1 2 cbr 500 ------- 1 0.0 2.0 36 36
r 0.717667 0 1 cbr 500 ------- 1 0.0 2.0 41 41
+ 0.717667 1 2 cbr 500 ------- 1 0.0 2.0 41 41
- 0.717667 1 2 cbr 500 ------- 1 0.0 2.0 41 41
+ 0.72 0 1 cbr 500 ------- 1 0.0 2.0 44 44
- 0.72 0 1 cbr 500 ------- 1 0.0 2.0 44 44
r 0.720333 1 2 cbr 500 ------- 1 0.0 2.0 37 37
r 0.722667 0 1 cbr 500 ------- 1 0.0 2.0 42 42
+ 0.722667 1 2 cbr 500 ------- 1 0.0 2.0 42 42
- 0.722667 1 2 cbr 500 ------- 1 0.0 2.0 42 42
+ 0.725 0 1 cbr 500 ------- 1 0.0 2.0 45 45
- 0.725 0 1 cbr 500 ------- 1 0.0 2.0 45 45
r 0.725333 1 2 cbr 500 ------- 1 0.0 2.0 38 38
r 0.727667 0 1 cbr 500 ------- 1 0.0 2.0 43 43
+ 0.727667 1 2 cbr 500 ------- 1 0.0 2.0 43 43
- 0.727667 1 2 cbr 500 ------- 1 0.0 2.0 43 43
+ 0.73 0 1 cbr 500 ------- 1 0.0 2.0 46 46
- 0.73 0 1 cbr 500 ------- 1 0.0 2.0 46 46
r 0.730333 1 2 cbr 500 ------- 1 0.0 2.0 39 39
r 0.732667 0 1 cbr 500 ------- 1 0.0 2.0 44 44
+ 0.732667 1 2 cbr 500 ------- 1 0.0 2.0 44 44
- 0.732667 1 2 cbr 500 ------- 1 0.0 2.0 44 44
+ 0.735 0 1 cbr 500 ------- 1 0.0 2.0 47 47
- 0.735 0 1 cbr 500 ------- 1 0.0 2.0 47 47
r 0.735333 1 2 cbr 500 ------- 1 0.0 2.0 40 40
r 0.737667 0 1 cbr 500 ------- 1 0.0 2.0 45 45
+ 0.737667 1 2 cbr 500 ------- 1 0.0 2.0 45 45
- 0.737667 1 2 cbr 500 ------- 1 0.0 2.0 45 45
+ 0.74 0 1 cbr 500 ------- 1 0.0 2.0 48 48
- 0.74 0 1 cbr 500 ------- 1 0.0 2.0 48 48
r 0.740333 1 2 cbr 500 ------- 1 0.0 2.0 41 41
r 0.742667 0 1 cbr 500 ------- 1 0.0 2.0 46 46
+ 0.742667 1 2 cbr 500 ------- 1 0.0 2.0 46 46
- 0.742667 1 2 cbr 500 ------- 1 0.0 2.0 46 46
+ 0.745 0 1 cbr 500 ------- 1 0.0 2.0 49 49
- 0.745 0 1 cbr 500 ------- 1 0.0 2.0 49 49
r 0.745333 1 2 cbr 500 ------- 1 0.0 2.0 42 42
r 0.747667 0 1 cbr 500 ------- 1 0.0 2.0 47 47
+ 0.747667 1 2 cbr 500 ------- 1 0.0 2.0 47 47
- 0.747667 1 2 cbr 500 ------- 1 0.0 2.0 47 47
+ 0.75 0 1 cbr 500 ------- 1 0.0 2.0 50 50
- 0.75 0 1 cbr 500 ------- 1 0.0 2.0 50 50
r 0.750333 1 2 cbr 500 ------- 1 0.0 2.0 43 43
r 0.752667 0 1 cbr 500 ------- 1 0.0 2.0 48 48
+ 0.752667 1 2 cbr 500 ------- 1 0.0 2.0 48 48
- 0.752667 1 2 cbr 500 ------- 1 0.0 2.0 48 48
+ 0.755 0 1 cbr 500 ------- 1 0.0 2.0 51 51
- 0.755 0 1 cbr 500 ------- 1 0.0 2.0 51 51
r 0.755333 1 2 cbr 500 ------- 1 0.0 2.0 44 44
r 0.757667 0 1 cbr 500 ------- 1 0.0 2.0 49 49
+ 0.757667 1 2 cbr 500 ------- 1 0.0 2.0 49 49
- 0.757667 1 2 cbr 500 ------- 1 0.0 2.0 49 49
+ 0.76 0 1 cbr 500 ------- 1 0.0 2.0 52 52
- 0.76 0 1 cbr 500 ------- 1 0.0 2.0 52 52
r 0.760333 1 2 cbr 500 ------- 1 0.0 2.0 45 45
r 0.762667 0 1 cbr 500 ------- 1 0.0 2.0 50 50
+ 0.762667 1 2 cbr 500 ------- 1 0.0 2.0 50 50
- 0.762667 1 2 cbr 500 ------- 1 0.0 2.0 50 50
+ 0.765 0 1 cbr 500 ------- 1 0.0 2.0 53 53
- 0.765 0 1 cbr 500 ------- 1 0.0 2.0 53 53
r 0.765333 1 2 cbr 500 ------- 1 0.0 2.0 46 46
r 0.767667 0 1 cbr 500 ------- 1 0.0 2.0 51 51
+ 0.767667 1 2 cbr 500 ------- 1 0.0 2.0 51 51
- 0.767667 1 2 cbr 500 ------- 1 0.0 2.0 51 51
+ 0.77 0 1 cbr 500 ------- 1 0.0 2.0 54 54
- 0.77 0 1 cbr 500 ------- 1 0.0 2.0 54 54
r 0.770333 1 2 cbr 500 ------- 1 0.0 2.0 47 47
r 0.772667 0 1 cbr 500 ------- 1 0.0 2.0 52 52
+ 0.772667 1 2 cbr 500 ------- 1 0.0 2.0 52 52
- 0.772667 1 2 cbr 500 ------- 1 0.0 2.0 52 52
+ 0.775 0 1 cbr 500 ------- 1 0.0 2.0 55 55
- 0.775 0 1 cbr 500 ------- 1 0.0 2.0 55 55
r 0.775333 1 2 cbr 500 ------- 1 0.0 2.0 48 48
r 0.777667 0 1 cbr 500 ------- 1 0.0 2.0 53 53
+ 0.777667 1 2 cbr 500 ------- 1 0.0 2.0 53 53
- 0.777667 1 2 cbr 500 ------- 1 0.0 2.0 53 53
+ 0.78 0 1 cbr 500 ------- 1 0.0 2.0 56 56
- 0.78 0 1 cbr 500 ------- 1 0.0 2.0 56 56
r 0.780333 1 2 cbr 500 ------- 1 0.0 2.0 49 49
r 0.782667 0 1 cbr 500 ------- 1 0.0 2.0 54 54
+ 0.782667 1 2 cbr 500 ------- 1 0.0 2.0 54 54
- 0.782667 1 2 cbr 500 ------- 1 0.0 2.0 54 54
+ 0.785 0 1 cbr 500 ------- 1 0.0 2.0 57 57
- 0.785 0 1 cbr 500 ------- 1 0.0 2.0 57 57
r 0.785333 1 2 cbr 500 ------- 1 0.0 2.0 50 50
r 0.787667 0 1 cbr 500 ------- 1 0.0 2.0 55 55
+ 0.787667 1 2 cbr 500 ------- 1 0.0 2.0 55 55
- 0.787667 1 2 cbr 500 ------- 1 0.0 2.0 55 55
+ 0.79 0 1 cbr 500 ------- 1 0.0 2.0 58 58
- 0.79 0 1 cbr 500 ------- 1 0.0 2.0 58 58
r 0.790333 1 2 cbr 500 ------- 1 0.0 2.0 51 51
r 0.792667 0 1 cbr 500 ------- 1 0.0 2.0 56 56
+ 0.792667 1 2 cbr 500 ------- 1 0.0 2.0 56 56
- 0.792667 1 2 cbr 500 ------- 1 0.0 2.0 56 56
+ 0.795 0 1 cbr 500 ------- 1 0.0 2.0 59 59
- 0.795 0 1 cbr 500 ------- 1 0.0 2.0 59 59
r 0.795333 1 2 cbr 500 ------- 1 0.0 2.0 52 52
r 0.797667 0 1 cbr 500 ------- 1 0.0 2.0 57 57
+ 0.797667 1 2 cbr 500 ------- 1 0.0 2.0 57 57
- 0.797667 1 2 cbr 500 ------- 1 0.0 2.0 57 57
+ 0.8 0 1 cbr 500 ------- 1 0.0 2.0 60 60
- 0.8 0 1 cbr 500 ------- 1 0.0 2.0 60 60
r 0.800333 1 2 cbr 500 ------- 1 0.0 2.0 53 53
r 0.802667 0 1 cbr 500 ------- 1 0.0 2.0 58 58
+ 0.802667 1 2 cbr 500 ------- 1 0.0 2.0 58 58
- 0.802667 1 2 cbr 500 ------- 1 0.0 2.0 58 58
+ 0.805 0 1 cbr 500 ------- 1 0.0 2.0 61 61
- 0.805 0 1 cbr 500 ------- 1 0.0 2.0 61 61
r 0.805333 1 2 cbr 500 ------- 1 0.0 2.0 54 54
r 0.807667 0 1 cbr 500 ------- 1 0.0 2.0 59 59
+ 0.807667 1 2 cbr 500 ------- 1 0.0 2.0 59 59
- 0.807667 1 2 cbr 500 ------- 1 0.0 2.0 59 59
+ 0.81 0 1 cbr 500 ------- 1 0.0 2.0 62 62
- 0.81 0 1 cbr 500 ------- 1 0.0 2.0 62 62
r 0.810333 1 2 cbr 500 ------- 1 0.0 2.0 55 55
r 0.812667 0 1 cbr 500 ------- 1 0.0 2.0 60 60
+ 0.812667 1 2 cbr 500 ------- 1 0.0 2.0 60 60
- 0.812667 1 2 cbr 500 ------- 1 0.0 2.0 60 60
+ 0.815 0 1 cbr 500 ------- 1 0.0 2.0 63 63
- 0.815 0 1 cbr 500 ------- 1 0.0 2.0 63 63
r 0.815333 1 2 cbr 500 ------- 1 0.0 2.0 56 56
r 0.817667 0 1 cbr 500 ------- 1 0.0 2.0 61 61
+ 0.817667 1 2 cbr 500 ------- 1 0.0 2.0 61 61
- 0.817667 1 2 cbr 500 ------- 1 0.0 2.0 61 61
+ 0.82 0 1 cbr 500 ------- 1 0.0 2.0 64 64
- 0.82 0 1 cbr 500 ------- 1 0.0 2.0 64 64
r 0.820333 1 2 cbr 500 ------- 1 0.0 2.0 57 57
r 0.822667 0 1 cbr 500 ------- 1 0.0 2.0 62 62
+ 0.822667 1 2 cbr 500 ------- 1 0.0 2.0 62 62
- 0.822667 1 2 cbr 500 ------- 1 0.0 2.0 62 62
+ 0.825 0 1 cbr 500 ------- 1 0.0 2.0 65 65
- 0.825 0 1 cbr 500 ------- 1 0.0 2.0 65 65
r 0.825333 1 2 cbr 500 ------- 1 0.0 2.0 58 58
r 0.827667 0 1 cbr 500 ------- 1 0.0 2.0 63 63
+ 0.827667 1 2 cbr 500 ------- 1 0.0 2.0 63 63
- 0.827667 1 2 cbr 500 ------- 1 0.0 2.0 63 63
+ 0.83 0 1 cbr 500 ------- 1 0.0 2.0 66 66
- 0.83 0 1 cbr 500 ------- 1 0.0 2.0 66 66
r 0.830333 1 2 cbr 500 ------- 1 0.0 2.0 59 59
r 0.832667 0 1 cbr 500 ------- 1 0.0 2.0 64 64
+ 0.832667 1 2 cbr 500 ------- 1 0.0 2.0 64 64
- 0.832667 1 2 cbr 500 ------- 1 0.0 2.0 64 64
+ 0.835 0 1 cbr 500 ------- 1 0.0 2.0 67 67
- 0.835 0 1 cbr 500 ------- 1 0.0 2.0 67 67
r 0.835333 1 2 cbr 500 ------- 1 0.0 2.0 60 60
r 0.837667 0 1 cbr 500 ------- 1 0.0 2.0 65 65
+ 0.837667 1 2 cbr 500 ------- 1 0.0 2.0 65 65
- 0.837667 1 2 cbr 500 ------- 1 0.0 2.0 65 65
+ 0.84 0 1 cbr 500 ------- 1 0.0 2.0 68 68
- 0.84 0 1 cbr 500 ------- 1 0.0 2.0 68 68
r 0.840333 1 2 cbr 500 ------- 1 0.0 2.0 61 61
r 0.842667 0 1 cbr 500 ------- 1 0.0 2.0 66 66
+ 0.842667 1 2 cbr 500 ------- 1 0.0 2.0 66 66
- 0.842667 1 2 cbr 500 ------- 1 0.0 2.0 66 66
+ 0.845 0 1 cbr 500 ------- 1 0.0 2.0 69 69
- 0.845 0 1 cbr 500 ------- 1 0.0 2.0 69 69
r 0.845333 1 2 cbr 500 ------- 1 0.0 2.0 62 62
r 0.847667 0 1 cbr 500 ------- 1 0.0 2.0 67 67
+ 0.847667 1 2 cbr 500 ------- 1 0.0 2.0 67 67
- 0.847667 1 2 cbr 500 ------- 1 0.0 2.0 67 67
+ 0.85 0 1 cbr 500 ------- 1 0.0 2.0 70 70
- 0.85 0 1 cbr 500 ------- 1 0.0 2.0 70 70
r 0.850333 1 2 cbr 500 ------- 1 0.0 2.0 63 63
r 0.852667 0 1 cbr 500 ------- 1 0.0 2.0 68 68
+ 0.852667 1 2 cbr 500 ------- 1 0.0 2.0 68 68
- 0.852667 1 2 cbr 500 ------- 1 0.0 2.0 68 68
+ 0.855 0 1 cbr 500 ------- 1 0.0 2.0 71 71
- 0.855 0 1 cbr 500 ------- 1 0.0 2.0 71 71
r 0.855333 1 2 cbr 500 ------- 1 0.0 2.0 64 64
r 0.857667 0 1 cbr 500 ------- 1 0.0 2.0 69 69
+ 0.857667 1 2 cbr 500 ------- 1 0.0 2.0 69 69
- 0.857667 1 2 cbr 500 ------- 1 0.0 2.0 69 69
+ 0.86 0 1 cbr 500 ------- 1 0.0 2.0 72 72
- 0.86 0 1 cbr 500 ------- 1 0.0 2.0 72 72
r 0.860333 1 2 cbr 500 ------- 1 0.0 2.0 65 65
r 0.862667 0 1 cbr 500 ------- 1 0.0 2.0 70 70
+ 0.862667 1 2 cbr 500 ------- 1 0.0 2.0 70 70
- 0.862667 1 2 cbr 500 ------- 1 0.0 2.0 70 70
+ 0.865 0 1 cbr 500 ------- 1 0.0 2.0 73 73
- 0.865 0 1 cbr 500 ------- 1 0.0 2.0 73 73
r 0.865333 1 2 cbr 500 ------- 1 0.0 2.0 66 66
r 0.867667 0 1 cbr 500 ------- 1 0.0 2.0 71 71
+ 0.867667 1 2 cbr 500 ------- 1 0.0 2.0 71 71
- 0.867667 1 2 cbr 500 ------- 1 0.0 2.0 71 71
+ 0.87 0 1 cbr 500 ------- 1 0.0 2.0 74 74
- 0.87 0 1 cbr 500 ------- 1 0.0 2.0 74 74
r 0.870333 1 2 cbr 500 ------- 1 0.0 2.0 67 67
r 0.872667 0 1 cbr 500 ------- 1 0.0 2.0 72 72
+ 0.872667 1 2 cbr 500 ------- 1 0.0 2.0 72 72
- 0.872667 1 2 cbr 500 ------- 1 0.0 2.0 72 72
+ 0.875 0 1 cbr 500 ------- 1 0.0 2.0 75 75
- 0.875 0 1 cbr 500 ------- 1 0.0 2.0 75 75
r 0.875333 1 2 cbr 500 ------- 1 0.0 2.0 68 68
r 0.877667 0 1 cbr 500 ------- 1 0.0 2.0 73 73
+ 0.877667 1 2 cbr 500 ------- 1 0.0 2.0 73 73
- 0.877667 1 2 cbr 500 ------- 1 0.0 2.0 73 73
+ 0.88 0 1 cbr 500 ------- 1 0.0 2.0 76 76
- 0.88 0 1 cbr 500 ------- 1 0.0 2.0 76 76
r 0.880333 1 2 cbr 500 ------- 1 0.0 2.0 69 69
r 0.882667 0 1 cbr 500 ------- 1 0.0 2.0 74 74
+ 0.882667 1 2 cbr 500 ------- 1 0.0 2.0 74 74
- 0.882667 1 2 cbr 500 ------- 1 0.0 2.0 74 74
+ 0.885 0 1 cbr 500 ------- 1 0.0 2.0 77 77
- 0.885 0 1 cbr 500 ------- 1 0.0 2.0 77 77
r 0.885333 1 2 cbr 500 ------- 1 0.0 2.0 70 70
r 0.887667 0 1 cbr 500 ------- 1 0.0 2.0 75 75
+ 0.887667 1 2 cbr 500 ------- 1 0.0 2.0 75 75
- 0.887667 1 2 cbr 500 ------- 1 0.0 2.0 75 75
+ 0.89 0 1 cbr 500 ------- 1 0.0 2.0 78 78
- 0.89 0 1 cbr 500 ------- 1 0.0 2.0 78 78
r 0.890333 1 2 cbr 500 ------- 1 0.0 2.0 71 71
r 0.892667 0 1 cbr 500 ------- 1 0.0 2.0 76 76
+ 0.892667 1 2 cbr 500 ------- 1 0.0 2.0 76 76
- 0.892667 1 2 cbr 500 ------- 1 0.0 2.0 76 76
+ 0.895 0 1 cbr 500 ------- 1 0.0 2.0 79 79
- 0.895 0 1 cbr 500 ------- 1 0.0 2.0 79 79
r 0.895333 1 2 cbr 500 ------- 1 0.0 2.0 72 72
r 0.897667 0 1 cbr 500 ------- 1 0.0 2.0 77 77
+ 0.897667 1 2 cbr 500 ------- 1 0.0 2.0 77 77
- 0.897667 1 2 cbr 500 ------- 1 0.0 2.0 77 77
+ 0.9 0 1 cbr 500 ------- 1 0.0 2.0 80 80
- 0.9 0 1 cbr 500 ------- 1 0.0 2.0 80 80
r 0.900333 1 2 cbr 500 ------- 1 0.0 2.0 73 73
r 0.902667 0 1 cbr 500 ------- 1 0.0 2.0 78 78
+ 0.902667 1 2 cbr 500 ------- 1 0.0 2.0 78 78
- 0.902667 1 2 cbr 500 ------- 1 0.0 2.0 78 78
+ 0.905 0 1 cbr 500 ------- 1 0.0 2.0 81 81
- 0.905 0 1 cbr 500 ------- 1 0.0 2.0 81 81
r 0.905333 1 2 cbr 500 ------- 1 0.0 2.0 74 74
r 0.907667 0 1 cbr 500 ------- 1 0.0 2.0 79 79
+ 0.907667 1 2 cbr 500 ------- 1 0.0 2.0 79 79
- 0.907667 1 2 cbr 500 ------- 1 0.0 2.0 79 79
+ 0.91 0 1 cbr 500 ------- 1 0.0 2.0 82 82
- 0.91 0 1 cbr 500 ------- 1 0.0 2.0 82 82
r 0.910333 1 2 cbr 500 ------- 1 0.0 2.0 75 75
r 0.912667 0 1 cbr 500 ------- 1 0.0 2.0 80 80
+ 0.912667 1 2 cbr 500 ------- 1 0.0 2.0 80 80
- 0.912667 1 2 cbr 500 ------- 1 0.0 2.0 80 80
+ 0.915 0 1 cbr 500 ------- 1 0.0 2.0 83 83
- 0.915 0 1 cbr 500 ------- 1 0.0 2.0 83 83
r 0.915333 1 2 cbr 500 ------- 1 0.0 2.0 76 76
r 0.917667 0 1 cbr 500 ------- 1 0.0 2.0 81 81
+ 0.917667 1 2 cbr 500 ------- 1 0.0 2.0 81 81
- 0.917667 1 2 cbr 500 ------- 1 0.0 2.0 81 81
+ 0.92 0 1 cbr 500 ------- 1 0.0 2.0 84 84
- 0.92 0 1 cbr 500 ------- 1 0.0 2.0 84 84
r 0.920333 1 2 cbr 500 ------- 1 0.0 2.0 77 77
r 0.922667 0 1 cbr 500 ------- 1 0.0 2.0 82 82
+ 0.922667 1 2 cbr 500 ------- 1 0.0 2.0 82 82
- 0.922667 1 2 cbr 500 ------- 1 0.0 2.0 82 82
+ 0.925 0 1 cbr 500 ------- 1 0.0 2.0 85 85
- 0.925 0 1 cbr 500 ------- 1 0.0 2.0 85 85
r 0.925333 1 2 cbr 500 ------- 1 0.0 2.0 78 78
r 0.927667 0 1 cbr 500 ------- 1 0.0 2.0 83 83
+ 0.927667 1 2 cbr 500 ------- 1 0.0 2.0 83 83
- 0.927667 1 2 cbr 500 ------- 1 0.0 2.0 83 83
+ 0.93 0 1 cbr 500 ------- 1 0.0 2.0 86 86
- 0.93 0 1 cbr 500 ------- 1 0.0 2.0 86 86
r 0.930333 1 2 cbr 500 ------- 1 0.0 2.0 79 79
r 0.932667 0 1 cbr 500 ------- 1 0.0 2.0 84 84
+ 0.932667 1 2 cbr 500 ------- 1 0.0 2.0 84 84
- 0.932667 1 2 cbr 500 ------- 1 0.0 2.0 84 84
+ 0.935 0 1 cbr 500 ------- 1 0.0 2.0 87 87
- 0.935 0 1 cbr 500 ------- 1 0.0 2.0 87 87
r 0.935333 1 2 cbr 500 ------- 1 0.0 2.0 80 80
r 0.937667 0 1 cbr 500 ------- 1 0.0 2.0 85 85
+ 0.937667 1 2 cbr 500 ------- 1 0.0 2.0 85 85
- 0.937667 1 2 cbr 500 ------- 1 0.0 2.0 85 85
+ 0.94 0 1 cbr 500 ------- 1 0.0 2.0 88 88
- 0.94 0 1 cbr 500 ------- 1 0.0 2.0 88 88
r 0.940333 1 2 cbr 500 ------- 1 0.0 2.0 81 81
r 0.942667 0 1 cbr 500 ------- 1 0.0 2.0 86 86
+ 0.942667 1 2 cbr 500 ------- 1 0.0 2.0 86 86
- 0.942667 1 2 cbr 500 ------- 1 0.0 2.0 86 86
+ 0.945 0 1 cbr 500 ------- 1 0.0 2.0 89 89
- 0.945 0 1 cbr 500 ------- 1 0.0 2.0 89 89
r 0.945333 1 2 cbr 500 ------- 1 0.0 2.0 82 82
r 0.947667 0 1 cbr 500 ------- 1 0.0 2.0 87 87
+ 0.947667 1 2 cbr 500 ------- 1 0.0 2.0 87 87
- 0.947667 1 2 cbr 500 ------- 1 0.0 2.0 87 87
+ 0.95 0 1 cbr 500 ------- 1 0.0 2.0 90 90
- 0.95 0 1 cbr 500 ------- 1 0.0 2.0 90 90
r 0.950333 1 2 cbr 500 ------- 1 0.0 2.0 83 83
r 0.952667 0 1 cbr 500 ------- 1 0.0 2.0 88 88
+ 0.952667 1 2 cbr 500 ------- 1 0.0 2.0 88 88
- 0.952667 1 2 cbr 500 ------- 1 0.0 2.0 88 88
+ 0.955 0 1 cbr 500 ------- 1 0.0 2.0 91 91
- 0.955 0 1 cbr 500 ------- 1 0.0 2.0 91 91
r 0.955333 1 2 cbr 500 ------- 1 0.0 2.0 84 84
r 0.957667 0 1 cbr 500 ------- 1 0.0 2.0 89 89
+ 0.957667 1 2 cbr 500 ------- 1 0.0 2.0 89 89
- 0.957667 1 2 cbr 500 ------- 1 0.0 2.0 89 89
+ 0.96 0 1 cbr 500 ------- 1 0.0 2.0 92 92
- 0.96 0 1 cbr 500 ------- 1 0.0 2.0 92 92
r 0.960333 1 2 cbr 500 ------- 1 0.0 2.0 85 85
r 0.962667 0 1 cbr 500 ------- 1 0.0 2.0 90 90
+ 0.962667 1 2 cbr 500 ------- 1 0.0 2.0 90 90
- 0.962667 1 2 cbr 500 ------- 1 0.0 2.0 90 90
+ 0.965 0 1 cbr 500 ------- 1 0.0 2.0 93 93
- 0.965 0 1 cbr 500 ------- 1 0.0 2.0 93 93
r 0.965333 1 2 cbr 500 ------- 1 0.0 2.0 86 86
r 0.967667 0 1 cbr 500 ------- 1 0.0 2.0 91 91
+ 0.967667 1 2 cbr 500 ------- 1 0.0 2.0 91 91
- 0.967667 1 2 cbr 500 ------- 1 0.0 2.0 91 91
+ 0.97 0 1 cbr 500 ------- 1 0.0 2.0 94 94
- 0.97 0 1 cbr 500 ------- 1 0.0 2.0 94 94
r 0.970333 1 2 cbr 500 ------- 1 0.0 2.0 87 87
r 0.972667 0 1 cbr 500 ------- 1 0.0 2.0 92 92
+ 0.972667 1 2 cbr 500 ------- 1 0.0 2.0 92 92
- 0.972667 1 2 cbr 500 ------- 1 0.0 2.0 92 92
+ 0.975 0 1 cbr 500 ------- 1 0.0 2.0 95 95
- 0.975 0 1 cbr 500 ------- 1 0.0 2.0 95 95
r 0.975333 1 2 cbr 500 ------- 1 0.0 2.0 88 88
r 0.977667 0 1 cbr 500 ------- 1 0.0 2.0 93 93
+ 0.977667 1 2 cbr 500 ------- 1 0.0 2.0 93 93
- 0.977667 1 2 cbr 500 ------- 1 0.0 2.0 93 93
+ 0.98 0 1 cbr 500 ------- 1 0.0 2.0 96 96
- 0.98 0 1 cbr 500 ------- 1 0.0 2.0 96 96
r 0.980333 1 2 cbr 500 ------- 1 0.0 2.0 89 89
r 0.982667 0 1 cbr 500 ------- 1 0.0 2.0 94 94
+ 0.982667 1 2 cbr 500 ------- 1 0.0 2.0 94 94
- 0.982667 1 2 cbr 500 ------- 1 0.0 2.0 94 94
+ 0.985 0 1 cbr 500 ------- 1 0.0 2.0 97 97
- 0.985 0 1 cbr 500 ------- 1 0.0 2.0 97 97
r 0.985333 1 2 cbr 500 ------- 1 0.0 2.0 90 90
r 0.987667 0 1 cbr 500 ------- 1 0.0 2.0 95 95
+ 0.987667 1 2 cbr 500 ------- 1 0.0 2.0 95 95
- 0.987667 1 2 cbr 500 ------- 1 0.0 2.0 95 95
+ 0.99 0 1 cbr 500 ------- 1 0.0 2.0 98 98
- 0.99 0 1 cbr 500 ------- 1 0.0 2.0 98 98
r 0.990333 1 2 cbr 500 ------- 1 0.0 2.0 91 91
r 0.992667 0 1 cbr 500 ------- 1 0.0 2.0 96 96
+ 0.992667 1 2 cbr 500 ------- 1 0.0 2.0 96 96
- 0.992667 1 2 cbr 500 ------- 1 0.0 2.0 96 96
+ 0.995 0 1 cbr 500 ------- 1 0.0 2.0 99 99
- 0.995 0 1 cbr 500 ------- 1 0.0 2.0 99 99
r 0.995333 1 2 cbr 500 ------- 1 0.0 2.0 92 92
r 0.997667 0 1 cbr 500 ------- 1 0.0 2.0 97 97
+ 0.997667 1 2 cbr 500 ------- 1 0.0 2.0 97 97
- 0.997667 1 2 cbr 500 ------- 1 0.0 2.0 97 97
+ 1 1 2 tcp 40 ------- 2 1.0 2.1 0 100
+ 1 0 1 cbr 500 ------- 1 0.0 2.0 100 101
- 1 0 1 cbr 500 ------- 1 0.0 2.0 100 101
r 1.000333 1 2 cbr 500 ------- 1 0.0 2.0 93 93
- 1.000333 1 2 tcp 40 ------- 2 1.0 2.1 0 100
r 1.002667 0 1 cbr 500 ------- 1 0.0 2.0 98 98
+ 1.002667 1 2 cbr 500 ------- 1 0.0 2.0 98 98
- 1.002667 1 2 cbr 500 ------- 1 0.0 2.0 98 98
+ 1.005 0 1 cbr 500 ------- 1 0.0 2.0 101 102
- 1.005 0 1 cbr 500 ------- 1 0.0 2.0 101 102
r 1.005333 1 2 cbr 500 ------- 1 0.0 2.0 94 94
r 1.007667 0 1 cbr 500 ------- 1 0.0 2.0 99 99
+ 1.007667 1 2 cbr 500 ------- 1 0.0 2.0 99 99
- 1.007667 1 2 cbr 500 ------- 1 0.0 2.0 99 99
+ 1.01 0 1 cbr 500 ------- 1 0.0 2.0 102 103
- 1.01 0 1 cbr 500 ------- 1 0.0 2.0 102 103
r 1.010333 1 2 cbr 500 ------- 1 0.0 2.0 95 95
r 1.012667 0 1 cbr 500 ------- 1 0.0 2.0 100 101
+ 1.012667 1 2 cbr 500 ------- 1 0.0 2.0 100 101
- 1.012667 1 2 cbr 500 ------- 1 0.0 2.0 100 101
+ 1.015 0 1 cbr 500 ------- 1 0.0 2.0 103 104
- 1.015 0 1 cbr 500 ------- 1 0.0 2.0 103 104
r 1.015333 1 2 cbr 500 ------- 1 0.0 2.0 96 96
r 1.017667 0 1 cbr 500 ------- 1 0.0 2.0 101 102
+ 1.017667 1 2 cbr 500 ------- 1 0.0 2.0 101 102
- 1.017667 1 2 cbr 500 ------- 1 0.0 2.0 101 102
+ 1.02 0 1 cbr 500 ------- 1 0.0 2.0 104 105
- 1.02 0 1 cbr 500 ------- 1 0.0 2.0 104 105
r 1.020333 1 2 cbr 500 ------- 1 0.0 2.0 97 97
r 1.020547 1 2 tcp 40 ------- 2 1.0 2.1 0 100
+ 1.020547 2 1 ack 40 ------- 2 2.1 1.0 0 106
- 1.020547 2 1 ack 40 ------- 2 2.1 1.0 0 106
r 1.022667 0 1 cbr 500 ------- 1 0.0 2.0 102 103
+ 1.022667 1 2 cbr 500 ------- 1 0.0 2.0 102 103
- 1.022667 1 2 cbr 500 ------- 1 0.0 2.0 102 103
+ 1.025 0 1 cbr 500 ------- 1 0.0 2.0 105 107
- 1.025 0 1 cbr 500 ------- 1 0.0 2.0 105 107
r 1.025333 1 2 cbr 500 ------- 1 0.0 2.0 98 98
r 1.027667 0 1 cbr 500 ------- 1 0.0 2.0 103 104
+ 1.027667 1 2 cbr 500 ------- 1 0.0 2.0 103 104
- 1.027667 1 2 cbr 500 ------- 1 0.0 2.0 103 104
+ 1.03 0 1 cbr 500 ------- 1 0.0 2.0 106 108
- 1.03 0 1 cbr 500 ------- 1 0.0 2.0 106 108
r 1.030333 1 2 cbr 500 ------- 1 0.0 2.0 99 99
r 1.032667 0 1 cbr 500 ------- 1 0.0 2.0 104 105
+ 1.032667 1 2 cbr 500 ------- 1 0.0 2.0 104 105
- 1.032667 1 2 cbr 500 ------- 1 0.0 2.0 104 105
+ 1.035 0 1 cbr 500 ------- 1 0.0 2.0 107 109
- 1.035 0 1 cbr 500 ------- 1 0.0 2.0 107 109
r 1.035333 1 2 cbr 500 ------- 1 0.0 2.0 100 101
r 1.037667 0 1 cbr 500 ------- 1 0.0 2.0 105 107
+ 1.037667 1 2 cbr 500 ------- 1 0.0 2.0 105 107
- 1.037667 1 2 cbr 500 ------- 1 0.0 2.0 105 107
+ 1.04 0 1 cbr 500 ------- 1 0.0 2.0 108 110
- 1.04 0 1 cbr 500 ------- 1 0.0 2.0 108 110
r 1.040333 1 2 cbr 500 ------- 1 0.0 2.0 101 102
r 1.04076 2 1 ack 40 ------- 2 2.1 1.0 0 106
+ 1.04076 1 2 tcp 1040 ------- 2 1.0 2.1 1 111
- 1.04076 1 2 tcp 1040 ------- 2 1.0 2.1 1 111
+ 1.04076 1 2 tcp 1040 ------- 2 1.0 2.1 2 112
r 1.042667 0 1 cbr 500 ------- 1 0.0 2.0 106 108
+ 1.042667 1 2 cbr 500 ------- 1 0.0 2.0 106 108
+ 1.045 0 1 cbr 500 ------- 1 0.0 2.0 109 113
- 1.045 0 1 cbr 500 ------- 1 0.0 2.0 109 113
r 1.045333 1 2 cbr 500 ------- 1 0.0 2.0 102 103
- 1.046307 1 2 tcp 1040 ------- 2 1.0 2.1 2 112
r 1.047667 0 1 cbr 500 ------- 1 0.0 2.0 107 109
+ 1.047667 1 2 cbr 500 ------- 1 0.0 2.0 107 109