+ 0.5 0 1 cbr 500 ------- 1 0.0 2.0 0 0
- 0.5 0 1 cbr 500 ------- 1 0.0 2.0 0 0
+ 0.505 0 1 cbr 500 ------- 1 0.0 2.0 1 1
- 0.505333 0 1 cbr 500 ------- 1 0.0 2.0 1 1
+ 0.51 0 1 cbr 500 ------- 1 0.0 2.0 2 2
- 0.510667 0 1 cbr 500 ------- 1 0.0 2.0 2 2
+ 0.515 0 1 cbr 500 ------- 1 0.0 2.0 3 3
r 0.515333 0 1 cbr 500 ------- 1 0.0 2.0 0 0
+ 0.515333 1 2 cbr 500 ------- 1 0.0 2.0 0 0
- 0.515333 1 2 cbr 500 ------- 1 0.0 2.0 0 0
- 0.516 0 1 cbr 500 ------- 1 0.0 2.0 3 3
+ 0.52 0 1 cbr 500 ------- 1 0.0 2.0 4 4
r 0.520667 0 1 cbr 500 ------- 1 0.0 2.0 1 1
+ 0.520667 1 2 cbr 500 ------- 1 0.0 2.0 1 1
- 0.520667 1 2 cbr 500 ------- 1 0.0 2.0 1 1
- 0.521333 0 1 cbr 500 ------- 1 0.0 2.0 4 4
+ 0.525 0 1 cbr 500 ------- 1 0.0 2.0 5 5
r 0.526 0 1 cbr 500 ------- 1 0.0 2.0 2 2
+ 0.526 1 2 cbr 500 ------- 1 0.0 2.0 2 2
- 0.526 1 2 cbr 500 ------- 1 0.0 2.0 2 2
- 0.526667 0 1 cbr 500 ------- 1 0.0 2.0 5 5
+ 0.53 0 1 cbr 500 ------- 1 0.0 2.0 6 6
r 0.531333 0 1 cbr 500 ------- 1 0.0 2.0 3 3
+ 0.531333 1 2 cbr 500 ------- 1 0.0 2.0 3 3
- 0.531333 1 2 cbr 500 ------- 1 0.0 2.0 3 3
- 0.532 0 1 cbr 500 ------- 1 0.0 2.0 6 6
+ 0.535 0 1 cbr 500 ------- 1 0.0 2.0 7 7
r 0.536667 0 1 cbr 500 ------- 1 0.0 2.0 4 4
+ 0.536667 1 2 cbr 500 ------- 1 0.0 2.0 4 4
- 0.536667 1 2 cbr 500 ------- 1 0.0 2.0 4 4
- 0.537333 0 1 cbr 500 ------- 1 0.0 2.0 7 7
+ 0.54 0 1 cbr 500 ------- 1 0.0 2.0 8 8
r 0.540667 1 2 cbr 500 ------- 1 0.0 2.0 0 0
r 0.542 0 1 cbr 500 ------- 1 0.0 2.0 5 5
+ 0.542 1 2 cbr 500 ------- 1 0.0 2.0 5 5
- 0.542 1 2 cbr 500 ------- 1 0.0 2.0 5 5
- 0.542667 0 1 cbr 500 ------- 1 0.0 2.0 8 8
+ 0.545 0 1 cbr 500 ------- 1 0.0 2.0 9 9
r 0.546 1 2 cbr 500 ------- 1 0.0 2.0 1 1
r 0.547333 0 1 cbr 500 ------- 1 0.0 2.0 6 6
+ 0.547333 1 2 cbr 500 ------- 1 0.0 2.0 6 6
- 0.547333 1 2 cbr 500 ------- 1 0.0 2.0 6 6
- 0.548 0 1 cbr 500 ------- 1 0.0 2.0 9 9
+ 0.55 0 1 cbr 500 ------- 1 0.0 2.0 10 10
r 0.551333 1 2 cbr 500 ------- 1 0.0 2.0 2 2
r 0.552667 0 1 cbr 500 ------- 1 0.0 2.0 7 7
+ 0.552667 1 2 cbr 500 ------- 1 0.0 2.0 7 7
- 0.552667 1 2 cbr 500 ------- 1 0.0 2.0 7 7
- 0.553333 0 1 cbr 500 ------- 1 0.0 2.0 10 10
+ 0.555 0 1 cbr 500 ------- 1 0.0 2.0 11 11
r 0.556667 1 2 cbr 500 ------- 1 0.0 2.0 3 3
r 0.558 0 1 cbr 500 ------- 1 0.0 2.0 8 8
+ 0.558 1 2 cbr 500 ------- 1 0.0 2.0 8 8
- 0.558 1 2 cbr 500 ------- 1 0.0 2.0 8 8
- 0.558667 0 1 cbr 500 ------- 1 0.0 2.0 11 11
+ 0.56 0 1 cbr 500 ------- 1 0.0 2.0 12 12
r 0.562 1 2 cbr 500 ------- 1 0.0 2.0 4 4
r 0.563333 0 1 cbr 500 ------- 1 0.0 2.0 9 9
+ 0.563333 1 2 cbr 500 ------- 1 0.0 2.0 9 9
- 0.563333 1 2 cbr 500 ------- 1 0.0 2.0 9 9
- 0.564 0 1 cbr 500 ------- 1 0.0 2.0 12 12
+ 0.565 0 1 cbr 500 ------- 1 0.0 2.0 13 13
r 0.567333 1 2 cbr 500 ------- 1 0.0 2.0 5 5
r 0.568667 0 1 cbr 500 ------- 1 0.0 2.0 10 10
+ 0.568667 1 2 cbr 500 ------- 1 0.0 2.0 10 10
- 0.568667 1 2 cbr 500 ------- 1 0.0 2.0 10 10
- 0.569333 0 1 cbr 500 ------- 1 0.0 2.0 13 13
+ 0.57 0 1 cbr 500 ------- 1 0.0 2.0 14 14
r 0.572667 1 2 cbr 500 ------- 1 0.0 2.0 6 6
r 0.574 0 1 cbr 500 ------- 1 0.0 2.0 11 11
+ 0.574 1 2 cbr 500 ------- 1 0.0 2.0 11 11
- 0.574 1 2 cbr 500 ------- 1 0.0 2.0 11 11
- 0.574667 0 1 cbr 500 ------- 1 0.0 2.0 14 14
+ 0.575 0 1 cbr 500 ------- 1 0.0 2.0 15 15
r 0.578 1 2 cbr 500 ------- 1 0.0 2.0 7 7
r 0.579333 0 1 cbr 500 ------- 1 0.0 2.0 12 12
+ 0.579333 1 2 cbr 500 ------- 1 0.0 2.0 12 12
- 0.579333 1 2 cbr 500 ------- 1 0.0 2.0 12 12
- 0.58 0 1 cbr 500 ------- 1 0.0 2.0 15 15
+ 0.58 0 1 cbr 500 ------- 1 0.0 2.0 16 16
r 0.583333 1 2 cbr 500 ------- 1 0.0 2.0 8 8
r 0.584667 0 1 cbr 500 ------- 1 0.0 2.0 13 13
+ 0.584667 1 2 cbr 500 ------- 1 0.0 2.0 13 13
- 0.584667 1 2 cbr 500 ------- 1 0.0 2.0 13 13
+ 0.585 0 1 cbr 500 ------- 1 0.0 2.0 17 17
- 0.585333 0 1 cbr 500 ------- 1 0.0 2.0 16 16
r 0.588667 1 2 cbr 500 ------- 1 0.0 2.0 9 9
r 0.59 0 1 cbr 500 ------- 1 0.0 2.0 14 14
+ 0.59 1 2 cbr 500 ------- 1 0.0 2.0 14 14
- 0.59 1 2 cbr 500 ------- 1 0.0 2.0 14 14
+ 0.59 0 1 cbr 500 ------- 1 0.0 2.0 18 18
- 0.590667 0 1 cbr 500 ------- 1 0.0 2.0 17 17
r 0.594 1 2 cbr 500 ------- 1 0.0 2.0 10 10
+ 0.595 0 1 cbr 500 ------- 1 0.0 2.0 19 19
r 0.595333 0 1 cbr 500 ------- 1 0.0 2.0 15 15
+ 0.595333 1 2 cbr 500 ------- 1 0.0 2.0 15 15
- 0.595333 1 2 cbr 500 ------- 1 0.0 2.0 15 15
- 0.596 0 1 cbr 500 ------- 1 0.0 2.0 18 18
r 0.599333 1 2 cbr 500 ------- 1 0.0 2.0 11 11
+ 0.6 0 1 cbr 500 ------- 1 0.0 2.0 20 20
r 0.600667 0 1 cbr 500 ------- 1 0.0 2.0 16 16
+ 0.600667 1 2 cbr 500 ------- 1 0.0 2.0 16 16
- 0.600667 1 2 cbr 500 ------- 1 0.0 2.0 16 16
- 0.601333 0 1 cbr 500 ------- 1 0.0 2.0 19 19
r 0.604667 1 2 cbr 500 ------- 1 0.0 2.0 12 12
+ 0.605 0 1 cbr 500 ------- 1 0.0 2.0 21 21
r 0.606 0 1 cbr 500 ------- 1 0.0 2.0 17 17
+ 0.606 1 2 cbr 500 ------- 1 0.0 2.0 17 17
- 0.606 1 2 cbr 500 ------- 1 0.0 2.0 17 17
- 0.606667 0 1 cbr 500 ------- 1 0.0 2.0 20 20
r 0.61 1 2 cbr 500 ------- 1 0.0 2.0 13 13
+ 0.61 0 1 cbr 500 ------- 1 0.0 2.0 22 22
r 0.611333 0 1 cbr 500 ------- 1 0.0 2.0 18 18
+ 0.611333 1 2 cbr 500 ------- 1 0.0 2.0 18 18
- 0.611333 1 2 cbr 500 ------- 1 0.0 2.0 18 18
- 0.612 0 1 cbr 500 ------- 1 0.0 2.0 21 21
+ 0.615 0 1 cbr 500 ------- 1 0.0 2.0 23 23
r 0.615333 1 2 cbr 500 ------- 1 0.0 2.0 14 14
r 0.616667 0 1 cbr 500 ------- 1 0.0 2.0 19 19
+ 0.616667 1 2 cbr 500 ------- 1 0.0 2.0 19 19
- 0.616667 1 2 cbr 500 ------- 1 0.0 2.0 19 19
- 0.617333 0 1 cbr 500 ------- 1 0.0 2.0 22 22
+ 0.62 0 1 cbr 500 ------- 1 0.0 2.0 24 24
r 0.620667 1 2 cbr 500 ------- 1 0.0 2.0 15 15
r 0.622 0 1 cbr 500 ------- 1 0.0 2.0 20 20
+ 0.622 1 2 cbr 500 ------- 1 0.0 2.0 20 20
- 0.622 1 2 cbr 500 ------- 1 0.0 2.0 20 20
- 0.622667 0 1 cbr 500 ------- 1 0.0 2.0 23 23
+ 0.625 0 1 cbr 500 ------- 1 0.0 2.0 25 25
r 0.626 1 2 cbr 500 ------- 1 0.0 2.0 16 16
r 0.627333 0 1 cbr 500 ------- 1 0.0 2.0 21 21
+ 0.627333 1 2 cbr 500 ------- 1 0.0 2.0 21 21
- 0.627333 1 2 cbr 500 ------- 1 0.0 2.0 21 21
- 0.628 0 1 cbr 500 ------- 1 0.0 2.0 24 24
+ 0.63 0 1 cbr 500 ------- 1 0.0 2.0 26 26
r 0.631333 1 2 cbr 500 ------- 1 0.0 2.0 17 17
r 0.632667 0 1 cbr 500 ------- 1 0.0 2.0 22 22
+ 0.632667 1 2 cbr 500 ------- 1 0.0 2.0 22 22
- 0.632667 1 2 cbr 500 ------- 1 0.0 2.0 22 22
- 0.633333 0 1 cbr 500 ------- 1 0.0 2.0 25 25
+ 0.635 0 1 cbr 500 ------- 1 0.0 2.0 27 27
r 0.636667 1 2 cbr 500 ------- 1 0.0 2.0 18 18
r 0.638 0 1 cbr 500 ------- 1 0.0 2.0 23 23
+ 0.638 1 2 cbr 500 ------- 1 0.0 2.0 23 23
- 0.638 1 2 cbr 500 ------- 1 0.0 2.0 23 23
- 0.638667 0 1 cbr 500 ------- 1 0.0 2.0 26 26
+ 0.64 0 1 cbr 500 ------- 1 0.0 2.0 28 28
r 0.642 1 2 cbr 500 ------- 1 0.0 2.0 19 19
r 0.643333 0 1 cbr 500 ------- 1 0.0 2.0 24 24
+ 0.643333 1 2 cbr 500 ------- 1 0.0 2.0 24 24
- 0.643333 1 2 cbr 500 ------- 1 0.0 2.0 24 24
- 0.644 0 1 cbr 500 ------- 1 0.0 2.0 27 27
+ 0.645 0 1 cbr 500 ------- 1 0.0 2.0 29 29
r 0.647333 1 2 cbr 500 ------- 1 0.0 2.0 20 20
r 0.648667 0 1 cbr 500 ------- 1 0.0 2.0 25 25
+ 0.648667 1 2 cbr 500 ------- 1 0.0 2.0 25 25
- 0.648667 1 2 cbr 500 ------- 1 0.0 2.0 25 25
- 0.649333 0 1 cbr 500 ------- 1 0.0 2.0 28 28
+ 0.65 0 1 cbr 500 ------- 1 0.0 2.0 30 30
r 0.652667 1 2 cbr 500 ------- 1 0.0 2.0 21 21
r 0.654 0 1 cbr 500 ------- 1 0.0 2.0 26 26
+ 0.654 1 2 cbr 500 ------- 1 0.0 2.0 26 26
- 0.654 1 2 cbr 500 ------- 1 0.0 2.0 26 26
- 0.654667 0 1 cbr 500 ------- 1 0.0 2.0 29 29
+ 0.655 0 1 cbr 500 ------- 1 0.0 2.0 31 31
r 0.658 1 2 cbr 500 ------- 1 0.0 2.0 22 22
r 0.659333 0 1 cbr 500 ------- 1 0.0 2.0 27 27
+ 0.659333 1 2 cbr 500 ------- 1 0.0 2.0 27 27
- 0.659333 1 2 cbr 500 ------- 1 0.0 2.0 27 27
- 0.66 0 1 cbr 500 ------- 1 0.0 2.0 30 30
+ 0.66 0 1 cbr 500 ------- 1 0.0 2.0 32 32
r 0.663333 1 2 cbr 500 ------- 1 0.0 2.0 23 23
r 0.664667 0 1 cbr 500 ------- 1 0.0 2.0 28 28
+ 0.664667 1 2 cbr 500 ------- 1 0.0 2.0 28 28
- 0.664667 1 2 cbr 500 ------- 1 0.0 2.0 28 28
+ 0.665 0 1 cbr 500 ------- 1 0.0 2.0 33 33
- 0.665333 0 1 cbr 500 ------- 1 0.0 2.0 31 31
r 0.668667 1 2 cbr 500 ------- 1 0.0 2.0 24 24
r 0.67 0 1 cbr 500 ------- 1 0.0 2.0 29 29
+ 0.67 1 2 cbr 500 ------- 1 0.0 2.0 29 29
- 0.67 1 2 cbr 500 ------- 1 0.0 2.0 29 29
+ 0.67 0 1 cbr 500 ------- 1 0.0 2.0 34 34
- 0.670667 0 1 cbr 500 ------- 1 0.0 2.0 32 32
r 0.674 1 2 cbr 500 ------- 1 0.0 2.0 25 25
+ 0.675 0 1 cbr 500 ------- 1 0.0 2.0 35 35
r 0.675333 0 1 cbr 500 ------- 1 0.0 2.0 30 30
+ 0.675333 1 2 cbr 500 ------- 1 0.0 2.0 30 30
- 0.675333 1 2 cbr 500 ------- 1 0.0 2.0 30 30
- 0.676 0 1 cbr 500 ------- 1 0.0 2.0 33 33
r 0.679333 1 2 cbr 500 ------- 1 0.0 2.0 26 26
+ 0.68 0 1 cbr 500 ------- 1 0.0 2.0 36 36
r 0.680667 0 1 cbr 500 ------- 1 0.0 2.0 31 31
+ 0.680667 1 2 cbr 500 ------- 1 0.0 2.0 31 31
- 0.680667 1 2 cbr 500 ------- 1 0.0 2.0 31 31
- 0.681333 0 1 cbr 500 ------- 1 0.0 2.0 34 34
r 0.684667 1 2 cbr 500 ------- 1 0.0 2.0 27 27
+ 0.685 0 1 cbr 500 ------- 1 0.0 2.0 37 37
r 0.686 0 1 cbr 500 ------- 1 0.0 2.0 32 32
+ 0.686 1 2 cbr 500 ------- 1 0.0 2.0 32 32
- 0.686 1 2 cbr 500 ------- 1 0.0 2.0 32 32
- 0.686667 0 1 cbr 500 ------- 1 0.0 2.0 35 35
r 0.69 1 2 cbr 500 ------- 1 0.0 2.0 28 28
+ 0.69 0 1 cbr 500 ------- 1 0.0 2.0 38 38
r 0.691333 0 1 cbr 500 ------- 1 0.0 2.0 33 33
+ 0.691333 1 2 cbr 500 ------- 1 0.0 2.0 33 33
- 0.691333 1 2 cbr 500 ------- 1 0.0 2.0 33 33
- 0.692 0 1 cbr 500 ------- 1 0.0 2.0 36 36
+ 0.695 0 1 cbr 500 ------- 1 0.0 2.0 39 39
r 0.695333 1 2 cbr 500 ------- 1 0.0 2.0 29 29
r 0.696667 0 1 cbr 500 ------- 1 0.0 2.0 34 34
+ 0.696667 1 2 cbr 500 ------- 1 0.0 2.0 34 34
- 0.696667 1 2 cbr 500 ------- 1 0.0 2.0 34 34
- 0.697333 0 1 cbr 500 ------- 1 0.0 2.0 37 37
+ 0.7 0 1 cbr 500 ------- 1 0.0 2.0 40 40
r 0.700667 1 2 cbr 500 ------- 1 0.0 2.0 30 30
r 0.702 0 1 cbr 500 ------- 1 0.0 2.0 35 35
+ 0.702 1 2 cbr 500 ------- 1 0.0 2.0 35 35
- 0.702 1 2 cbr 500 ------- 1 0.0 2.0 35 35
- 0.702667 0 1 cbr 500 ------- 1 0.0 2.0 38 38
+ 0.705 0 1 cbr 500 ------- 1 0.0 2.0 41 41
r 0.706 1 2 cbr 500 ------- 1 0.0 2.0 31 31
r 0.707333 0 1 cbr 500 ------- 1 0.0 2.0 36 36
+ 0.707333 1 2 cbr 500 ------- 1 0.0 2.0 36 36
- 0.707333 1 2 cbr 500 ------- 1 0.0 2.0 36 36
- 0.708 0 1 cbr 500 ------- 1 0.0 2.0 39 39
+ 0.71 0 1 cbr 500 ------- 1 0.0 2.0 42 42
r 0.711333 1 2 cbr 500 ------- 1 0.0 2.0 32 32
r 0.712667 0 1 cbr 500 ------- 1 0.0 2.0 37 37
+ 0.712667 1 2 cbr 500 ------- 1 0.0 2.0 37 37
- 0.712667 1 2 cbr 500 ------- 1 0.0 2.0 37 37
- 0.713333 0 1 cbr 500 ------- 1 0.0 2.0 40 40
+ 0.715 0 1 cbr 500 ------- 1 0.0 2.0 43 43
r 0.716667 1 2 cbr 500 ------- 1 0.0 2.0 33 33
r 0.718 0 1 cbr 500 ------- 1 0.0 2.0 38 38
+ 0.718 1 2 cbr 500 ------- 1 0.0 2.0 38 38
- 0.718 1 2 cbr 500 ------- 1 0.0 2.0 38 38
- 0.718667 0 1 cbr 500 ------- 1 0.0 2.0 41 41
+ 0.72 0 1 cbr 500 ------- 1 0.0 2.0 44 44
r 0.722 1 2 cbr 500 ------- 1 0.0 2.0 34 34
r 0.723333 0 1 cbr 500 ------- 1 0.0 2.0 39 39
+ 0.723333 1 2 cbr 500 ------- 1 0.0 2.0 39 39
- 0.723333 1 2 cbr 500 ------- 1 0.0 2.0 39 39
- 0.724 0 1 cbr 500 ------- 1 0.0 2.0 42 42
+ 0.725 0 1 cbr 500 ------- 1 0.0 2.0 45 45
r 0.727333 1 2 cbr 500 ------- 1 0.0 2.0 35 35
r 0.728667 0 1 cbr 500 ------- 1 0.0 2.0 40 40
+ 0.728667 1 2 cbr 500 ------- 1 0.0 2.0 40 40
- 0.728667 1 2 cbr 500 ------- 1 0.0 2.0 40 40
- 0.729333 0 1 cbr 500 ------- 1 0.0 2.0 43 43
+ 0.73 0 1 cbr 500 ------- 1 0.0 2.0 46 46
r 0.732667 1 2 cbr 500 ------- 1 0.0 2.0 36 36
r 0.734 0 1 cbr 500 ------- 1 0.0 2.0 41 41
+ 0.734 1 2 cbr 500 ------- 1 0.0 2.0 41 41
- 0.734 1 2 cbr 500 ------- 1 0.0 2.0 41 41
- 0.734667 0 1 cbr 500 ------- 1 0.0 2.0 44 44
+ 0.735 0 1 cbr 500 ------- 1 0.0 2.0 47 47
r 0.738 1 2 cbr 500 ------- 1 0.0 2.0 37 37
r 0.739333 0 1 cbr 500 ------- 1 0.0 2.0 42 42
+ 0.739333 1 2 cbr 500 ------- 1 0.0 2.0 42 42
- 0.739333 1 2 cbr 500 ------- 1 0.0 2.0 42 42
- 0.74 0 1 cbr 500 ------- 1 0.0 2.0 45 45
+ 0.74 0 1 cbr 500 ------- 1 0.0 2.0 48 48
r 0.743333 1 2 cbr 500 ------- 1 0.0 2.0 38 38
r 0.744667 0 1 cbr 500 ------- 1 0.0 2.0 43 43
+ 0.744667 1 2 cbr 500 ------- 1 0.0 2.0 43 43
- 0.744667 1 2 cbr 500 ------- 1 0.0 2.0 43 43
+ 0.745 0 1 cbr 500 ------- 1 0.0 2.0 49 49
- 0.745333 0 1 cbr 500 ------- 1 0.0 2.0 46 46
r 0.748667 1 2 cbr 500 ------- 1 0.0 2.0 39 39
r 0.75 0 1 cbr 500 ------- 1 0.0 2.0 44 44
+ 0.75 1 2 cbr 500 ------- 1 0.0 2.0 44 44
- 0.75 1 2 cbr 500 ------- 1 0.0 2.0 44 44
+ 0.75 0 1 cbr 500 ------- 1 0.0 2.0 50 50
- 0.750667 0 1 cbr 500 ------- 1 0.0 2.0 47 47
r 0.754 1 2 cbr 500 ------- 1 0.0 2.0 40 40
+ 0.755 0 1 cbr 500 ------- 1 0.0 2.0 51 51
r 0.755333 0 1 cbr 500 ------- 1 0.0 2.0 45 45
+ 0.755333 1 2 cbr 500 ------- 1 0.0 2.0 45 45
- 0.755333 1 2 cbr 500 ------- 1 0.0 2.0 45 45
- 0.756 0 1 cbr 500 ------- 1 0.0 2.0 48 48
r 0.759333 1 2 cbr 500 ------- 1 0.0 2.0 41 41
+ 0.76 0 1 cbr 500 ------- 1 0.0 2.0 52 52
r 0.760667 0 1 cbr 500 ------- 1 0.0 2.0 46 46
+ 0.760667 1 2 cbr 500 ------- 1 0.0 2.0 46 46
- 0.760667 1 2 cbr 500 ------- 1 0.0 2.0 46 46
- 0.761333 0 1 cbr 500 ------- 1 0.0 2.0 49 49
r 0.764667 1 2 cbr 500 ------- 1 0.0 2.0 42 42
+ 0.765 0 1 cbr 500 ------- 1 0.0 2.0 53 53
r 0.766 0 1 cbr 500 ------- 1 0.0 2.0 47 47
+ 0.766 1 2 cbr 500 ------- 1 0.0 2.0 47 47
- 0.766 1 2 cbr 500 ------- 1 0.0 2.0 47 47
- 0.766667 0 1 cbr 500 ------- 1 0.0 2.0 50 50
r 0.77 1 2 cbr 500 ------- 1 0.0 2.0 43 43
+ 0.77 0 1 cbr 500 ------- 1 0.0 2.0 54 54
r 0.771333 0 1 cbr 500 ------- 1 0.0 2.0 48 48
+ 0.771333 1 2 cbr 500 ------- 1 0.0 2.0 48 48
- 0.771333 1 2 cbr 500 ------- 1 0.0 2.0 48 48
- 0.772 0 1 cbr 500 ------- 1 0.0 2.0 51 51
+ 0.775 0 1 cbr 500 ------- 1 0.0 2.0 55 55
r 0.775333 1 2 cbr 500 ------- 1 0.0 2.0 44 44
r 0.776667 0 1 cbr 500 ------- 1 0.0 2.0 49 49
+ 0.776667 1 2 cbr 500 ------- 1 0.0 2.0 49 49
- 0.776667 1 2 cbr 500 ------- 1 0.0 2.0 49 49
- 0.777333 0 1 cbr 500 ------- 1 0.0 2.0 52 52
+ 0.78 0 1 cbr 500 ------- 1 0.0 2.0 56 56
r 0.780667 1 2 cbr 500 ------- 1 0.0 2.0 45 45
r 0.782 0 1 cbr 500 ------- 1 0.0 2.0 50 50
+ 0.782 1 2 cbr 500 ------- 1 0.0 2.0 50 50
- 0.782 1 2 cbr 500 ------- 1 0.0 2.0 50 50
- 0.782667 0 1 cbr 500 ------- 1 0.0 2.0 53 53
+ 0.785 0 1 cbr 500 ------- 1 0.0 2.0 57 57
r 0.786 1 2 cbr 500 ------- 1 0.0 2.0 46 46
r 0.787333 0 1 cbr 500 ------- 1 0.0 2.0 51 51
+ 0.787333 1 2 cbr 500 ------- 1 0.0 2.0 51 51
- 0.787333 1 2 cbr 500 ------- 1 0.0 2.0 51 51
- 0.788 0 1 cbr 500 ------- 1 0.0 2.0 54 54
+ 0.79 0 1 cbr 500 ------- 1 0.0 2.0 58 58
r 0.791333 1 2 cbr 500 ------- 1 0.0 2.0 47 47
r 0.792667 0 1 cbr 500 ------- 1 0.0 2.0 52 52
+ 0.792667 1 2 cbr 500 ------- 1 0.0 2.0 52 52
- 0.792667 1 2 cbr 500 ------- 1 0.0 2.0 52 52
- 0.793333 0 1 cbr 500 ------- 1 0.0 2.0 55 55
+ 0.795 0 1 cbr 500 ------- 1 0.0 2.0 59 59
r 0.796667 1 2 cbr 500 ------- 1 0.0 2.0 48 48
r 0.798 0 1 cbr 500 ------- 1 0.0 2.0 53 53
+ 0.798 1 2 cbr 500 ------- 1 0.0 2.0 53 53
- 0.798 1 2 cbr 500 ------- 1 0.0 2.0 53 53
- 0.798667 0 1 cbr 500 ------- 1 0.0 2.0 56 56
+ 0.8 0 1 cbr 500 ------- 1 0.0 2.0 60 60
r 0.802 1 2 cbr 500 ------- 1 0.0 2.0 49 49
r 0.803333 0 1 cbr 500 ------- 1 0.0 2.0 54 54
+ 0.803333 1 2 cbr 500 ------- 1 0.0 2.0 54 54
- 0.803333 1 2 cbr 500 ------- 1 0.0 2.0 54 54
- 0.804 0 1 cbr 500 ------- 1 0.0 2.0 57 57
+ 0.805 0 1 cbr 500 ------- 1 0.0 2.0 61 61
r 0.807333 1 2 cbr 500 ------- 1 0.0 2.0 50 50
r 0.808667 0 1 cbr 500 ------- 1 0.0 2.0 55 55
+ 0.808667 1 2 cbr 500 ------- 1 0.0 2.0 55 55
- 0.808667 1 2 cbr 500 ------- 1 0.0 2.0 55 55
- 0.809333 0 1 cbr 500 ------- 1 0.0 2.0 58 58
+ 0.81 0 1 cbr 500 ------- 1 0.0 2.0 62 62
r 0.812667 1 2 cbr 500 ------- 1 0.0 2.0 51 51
r 0.814 0 1 cbr 500 ------- 1 0.0 2.0 56 56
+ 0.814 1 2 cbr 500 ------- 1 0.0 2.0 56 56
- 0.814 1 2 cbr 500 ------- 1 0.0 2.0 56 56
- 0.814667 0 1 cbr 500 ------- 1 0.0 2.0 59 59
+ 0.815 0 1 cbr 500 ------- 1 0.0 2.0 63 63
r 0.818 1 2 cbr 500 ------- 1 0.0 2.0 52 52
r 0.819333 0 1 cbr 500 ------- 1 0.0 2.0 57 57
+ 0.819333 1 2 cbr 500 ------- 1 0.0 2.0 57 57
- 0.819333 1 2 cbr 500 ------- 1 0.0 2.0 57 57
- 0.82 0 1 cbr 500 ------- 1 0.0 2.0 60 60
+ 0.82 0 1 cbr 500 ------- 1 0.0 2.0 64 64
r 0.823333 1 2 cbr 500 ------- 1 0.0 2.0 53 53
r 0.824667 0 1 cbr 500 ------- 1 0.0 2.0 58 58
+ 0.824667 1 2 cbr 500 ------- 1 0.0 2.0 58 58
- 0.824667 1 2 cbr 500 ------- 1 0.0 2.0 58 58
+ 0.825 0 1 cbr 500 ------- 1 0.0 2.0 65 65
- 0.825333 0 1 cbr 500 ------- 1 0.0 2.0 61 61
r 0.828667 1 2 cbr 500 ------- 1 0.0 2.0 54 54
r 0.83 0 1 cbr 500 ------- 1 0.0 2.0 59 59
+ 0.83 1 2 cbr 500 ------- 1 0.0 2.0 59 59
- 0.83 1 2 cbr 500 ------- 1 0.0 2.0 59 59
+ 0.83 0 1 cbr 500 ------- 1 0.0 2.0 66 66
- 0.830667 0 1 cbr 500 ------- 1 0.0 2.0 62 62
r 0.834 1 2 cbr 500 ------- 1 0.0 2.0 55 55
+ 0.835 0 1 cbr 500 ------- 1 0.0 2.0 67 67
r 0.835333 0 1 cbr 500 ------- 1 0.0 2.0 60 60
+ 0.835333 1 2 cbr 500 ------- 1 0.0 2.0 60 60
- 0.835333 1 2 cbr 500 ------- 1 0.0 2.0 60 60
- 0.836 0 1 cbr 500 ------- 1 0.0 2.0 63 63
r 0.839333 1 2 cbr 500 ------- 1 0.0 2.0 56 56
+ 0.84 0 1 cbr 500 ------- 1 0.0 2.0 68 68
r 0.840667 0 1 cbr 500 ------- 1 0.0 2.0 61 61
+ 0.840667 1 2 cbr 500 ------- 1 0.0 2.0 61 61
- 0.840667 1 2 cbr 500 ------- 1 0.0 2.0 61 61
- 0.841333 0 1 cbr 500 ------- 1 0.0 2.0 64 64
r 0.844667 1 2 cbr 500 ------- 1 0.0 2.0 57 57
+ 0.845 0 1 cbr 500 ------- 1 0.0 2.0 69 69
r 0.846 0 1 cbr 500 ------- 1 0.0 2.0 62 62
+ 0.846 1 2 cbr 500 ------- 1 0.0 2.0 62 62
- 0.846 1 2 cbr 500 ------- 1 0.0 2.0 62 62
- 0.846667 0 1 cbr 500 ------- 1 0.0 2.0 65 65
r 0.85 1 2 cbr 500 ------- 1 0.0 2.0 58 58
+ 0.85 0 1 cbr 500 ------- 1 0.0 2.0 70 70
r 0.851333 0 1 cbr 500 ------- 1 0.0 2.0 63 63
+ 0.851333 1 2 cbr 500 ------- 1 0.0 2.0 63 63
- 0.851333 1 2 cbr 500 ------- 1 0.0 2.0 63 63
- 0.852 0 1 cbr 500 ------- 1 0.0 2.0 66 66
+ 0.855 0 1 cbr 500 ------- 1 0.0 2.0 71 71
r 0.855333 1 2 cbr 500 ------- 1 0.0 2.0 59 59
r 0.856667 0 1 cbr 500 ------- 1 0.0 2.0 64 64
+ 0.856667 1 2 cbr 500 ------- 1 0.0 2.0 64 64
- 0.856667 1 2 cbr 500 ------- 1 0.0 2.0 64 64
- 0.857333 0 1 cbr 500 ------- 1 0.0 2.0 67 67
+ 0.86 0 1 cbr 500 ------- 1 0.0 2.0 72 72
r 0.860667 1 2 cbr 500 ------- 1 0.0 2.0 60 60
r 0.862 0 1 cbr 500 ------- 1 0.0 2.0 65 65
+ 0.862 1 2 cbr 500 ------- 1 0.0 2.0 65 65
- 0.862 1 2 cbr 500 ------- 1 0.0 2.0 65 65
- 0.862667 0 1 cbr 500 ------- 1 0.0 2.0 68 68
+ 0.865 0 1 cbr 500 ------- 1 0.0 2.0 73 73
r 0.866 1 2 cbr 500 ------- 1 0.0 2.0 61 61
r 0.867333 0 1 cbr 500 ------- 1 0.0 2.0 66 66
+ 0.867333 1 2 cbr 500 ------- 1 0.0 2.0 66 66
- 0.867333 1 2 cbr 500 ------- 1 0.0 2.0 66 66
- 0.868 0 1 cbr 500 ------- 1 0.0 2.0 69 69
+ 0.87 0 1 cbr 500 ------- 1 0.0 2.0 74 74
r 0.871333 1 2 cbr 500 ------- 1 0.0 2.0 62 62
r 0.872667 0 1 cbr 500 ------- 1 0.0 2.0 67 67
+ 0.872667 1 2 cbr 500 ------- 1 0.0 2.0 67 67
- 0.872667 1 2 cbr 500 ------- 1 0.0 2.0 67 67
- 0.873333 0 1 cbr 500 ------- 1 0.0 2.0 70 70
+ 0.875 0 1 cbr 500 ------- 1 0.0 2.0 75 75
r 0.876667 1 2 cbr 500 ------- 1 0.0 2.0 63 63
r 0.878 0 1 cbr 500 ------- 1 0.0 2.0 68 68
+ 0.878 1 2 cbr 500 ------- 1 0.0 2.0 68 68
- 0.878 1 2 cbr 500 ------- 1 0.0 2.0 68 68
- 0.878667 0 1 cbr 500 ------- 1 0.0 2.0 71 71
+ 0.88 0 1 cbr 500 ------- 1 0.0 2.0 76 76
r 0.882 1 2 cbr 500 ------- 1 0.0 2.0 64 64
r 0.883333 0 1 cbr 500 ------- 1 0.0 2.0 69 69
+ 0.883333 1 2 cbr 500 ------- 1 0.0 2.0 69 69
- 0.883333 1 2 cbr 500 ------- 1 0.0 2.0 69 69
- 0.884 0 1 cbr 500 ------- 1 0.0 2.0 72 72
+ 0.885 0 1 cbr 500 ------- 1 0.0 2.0 77 77
r 0.887333 1 2 cbr 500 ------- 1 0.0 2.0 65 65
r 0.888667 0 1 cbr 500 ------- 1 0.0 2.0 70 70
+ 0.888667 1 2 cbr 500 ------- 1 0.0 2.0 70 70
- 0.888667 1 2 cbr 500 ------- 1 0.0 2.0 70 70
- 0.889333 0 1 cbr 500 ------- 1 0.0 2.0 73 73
+ 0.89 0 1 cbr 500 ------- 1 0.0 2.0 78 78
r 0.892667 1 2 cbr 500 ------- 1 0.0 2.0 66 66
r 0.894 0 1 cbr 500 ------- 1 0.0 2.0 71 71
+ 0.894 1 2 cbr 500 ------- 1 0.0 2.0 71 71
- 0.894 1 2 cbr 500 ------- 1 0.0 2.0 71 71
- 0.894667 0 1 cbr 500 ------- 1 0.0 2.0 74 74
+ 0.895 0 1 cbr 500 ------- 1 0.0 2.0 79 79
r 0.898 1 2 cbr 500 ------- 1 0.0 2.0 67 67
r 0.899333 0 1 cbr 500 ------- 1 0.0 2.0 72 72
+ 0.899333 1 2 cbr 500 ------- 1 0.0 2.0 72 72
- 0.899333 1 2 cbr 500 ------- 1 0.0 2.0 72 72
- 0.9 0 1 cbr 500 ------- 1 0.0 2.0 75 75
+ 0.9 0 1 cbr 500 ------- 1 0.0 2.0 80 80
r 0.903333 1 2 cbr 500 ------- 1 0.0 2.0 68 68
r 0.904667 0 1 cbr 500 ------- 1 0.0 2.0 73 73
+ 0.904667 1 2 cbr 500 ------- 1 0.0 2.0 73 73
- 0.904667 1 2 cbr 500 ------- 1 0.0 2.0 73 73
+ 0.905 0 1 cbr 500 ------- 1 0.0 2.0 81 81
- 0.905333 0 1 cbr 500 ------- 1 0.0 2.0 76 76
r 0.908667 1 2 cbr 500 ------- 1 0.0 2.0 69 69
r 0.91 0 1 cbr 500 ------- 1 0.0 2.0 74 74
+ 0.91 1 2 cbr 500 ------- 1 0.0 2.0 74 74
- 0.91 1 2 cbr 500 ------- 1 0.0 2.0 74 74
+ 0.91 0 1 cbr 500 ------- 1 0.0 2.0 82 82
- 0.910667 0 1 cbr 500 ------- 1 0.0 2.0 77 77
r 0.914 1 2 cbr 500 ------- 1 0.0 2.0 70 70
+ 0.915 0 1 cbr 500 ------- 1 0.0 2.0 83 83
r 0.915333 0 1 cbr 500 ------- 1 0.0 2.0 75 75
+ 0.915333 1 2 cbr 500 ------- 1 0.0 2.0 75 75
- 0.915333 1 2 cbr 500 ------- 1 0.0 2.0 75 75
- 0.916 0 1 cbr 500 ------- 1 0.0 2.0 78 78
r 0.919333 1 2 cbr 500 ------- 1 0.0 2.0 71 71
+ 0.92 0 1 cbr 500 ------- 1 0.0 2.0 84 84
r 0.920667 0 1 cbr 500 ------- 1 0.0 2.0 76 76
+ 0.920667 1 2 cbr 500 ------- 1 0.0 2.0 76 76
- 0.920667 1 2 cbr 500 ------- 1 0.0 2.0 76 76
- 0.921333 0 1 cbr 500 ------- 1 0.0 2.0 79 79
r 0.924667 1 2 cbr 500 ------- 1 0.0 2.0 72 72
+ 0.925 0 1 cbr 500 ------- 1 0.0 2.0 85 85
r 0.926 0 1 cbr 500 ------- 1 0.0 2.0 77 77
+ 0.926 1 2 cbr 500 ------- 1 0.0 2.0 77 77
- 0.926 1 2 cbr 500 ------- 1 0.0 2.0 77 77
- 0.926667 0 1 cbr 500 ------- 1 0.0 2.0 80 80
r 0.93 1 2 cbr 500 ------- 1 0.0 2.0 73 73
+ 0.93 0 1 cbr 500 ------- 1 0.0 2.0 86 86
r 0.931333 0 1 cbr 500 ------- 1 0.0 2.0 78 78
+ 0.931333 1 2 cbr 500 ------- 1 0.0 2.0 78 78
- 0.931333 1 2 cbr 500 ------- 1 0.0 2.0 78 78
- 0.932 0 1 cbr 500 ------- 1 0.0 2.0 81 81
+ 0.935 0 1 cbr 500 ------- 1 0.0 2.0 87 87
r 0.935333 1 2 cbr 500 ------- 1 0.0 2.0 74 74
r 0.936667 0 1 cbr 500 ------- 1 0.0 2.0 79 79
+ 0.936667 1 2 cbr 500 ------- 1 0.0 2.0 79 79
- 0.936667 1 2 cbr 500 ------- 1 0.0 2.0 79 79
- 0.937333 0 1 cbr 500 ------- 1 0.0 2.0 82 82
+ 0.94 0 1 cbr 500 ------- 1 0.0 2.0 88 88
r 0.940667 1 2 cbr 500 ------- 1 0.0 2.0 75 75
r 0.942 0 1 cbr 500 ------- 1 0.0 2.0 80 80
+ 0.942 1 2 cbr 500 ------- 1 0.0 2.0 80 80
- 0.942 1 2 cbr 500 ------- 1 0.0 2.0 80 80
- 0.942667 0 1 cbr 500 ------- 1 0.0 2.0 83 83
+ 0.945 0 1 cbr 500 ------- 1 0.0 2.0 89 89
r 0.946 1 2 cbr 500 ------- 1 0.0 2.0 76 76
r 0.947333 0 1 cbr 500 ------- 1 0.0 2.0 81 81
+ 0.947333 1 2 cbr 500 ------- 1 0.0 2.0 81 81
- 0.947333 1 2 cbr 500 ------- 1 0.0 2.0 81 81
- 0.948 0 1 cbr 500 ------- 1 0.0 2.0 84 84
+ 0.95 0 1 cbr 500 ------- 1 0.0 2.0 90 90
r 0.951333 1 2 cbr 500 ------- 1 0.0 2.0 77 77
r 0.952667 0 1 cbr 500 ------- 1 0.0 2.0 82 82
+ 0.952667 1 2 cbr 500 ------- 1 0.0 2.0 82 82
- 0.952667 1 2 cbr 500 ------- 1 0.0 2.0 82 82
- 0.953333 0 1 cbr 500 ------- 1 0.0 2.0 85 85
+ 0.955 0 1 cbr 500 ------- 1 0.0 2.0 91 91
r 0.956667 1 2 cbr 500 ------- 1 0.0 2.0 78 78
r 0.958 0 1 cbr 500 ------- 1 0.0 2.0 83 83
+ 0.958 1 2 cbr 500 ------- 1 0.0 2.0 83 83
- 0.958 1 2 cbr 500 ------- 1 0.0 2.0 83 83
- 0.958667 0 1 cbr 500 ------- 1 0.0 2.0 86 86
+ 0.96 0 1 cbr 500 ------- 1 0.0 2.0 92 92
r 0.962 1 2 cbr 500 ------- 1 0.0 2.0 79 79
r 0.963333 0 1 cbr 500 ------- 1 0.0 2.0 84 84
+ 0.963333 1 2 cbr 500 ------- 1 0.0 2.0 84 84
- 0.963333 1 2 cbr 500 ------- 1 0.0 2.0 84 84
- 0.964 0 1 cbr 500 ------- 1 0.0 2.0 87 87
+ 0.965 0 1 cbr 500 ------- 1 0.0 2.0 93 93
r 0.967333 1 2 cbr 500 ------- 1 0.0 2.0 80 80
r 0.968667 0 1 cbr 500 ------- 1 0.0 2.0 85 85
+ 0.968667 1 2 cbr 500 ------- 1 0.0 2.0 85 85
- 0.968667 1 2 cbr 500 ------- 1 0.0 2.0 85 85
- 0.969333 0 1 cbr 500 ------- 1 0.0 2.0 88 88
+ 0.97 0 1 cbr 500 ------- 1 0.0 2.0 94 94
r 0.972667 1 2 cbr 500 ------- 1 0.0 2.0 81 81
r 0.974 0 1 cbr 500 ------- 1 0.0 2.0 86 86
+ 0.974 1 2 cbr 500 ------- 1 0.0 2.0 86 86
- 0.974 1 2 cbr 500 ------- 1 0.0 2.0 86 86
- 0.974667 0 1 cbr 500 ------- 1 0.0 2.0 89 89
+ 0.975 0 1 cbr 500 ------- 1 0.0 2.0 95 95
r 0.978 1 2 cbr 500 ------- 1 0.0 2.0 82 82
r 0.979333 0 1 cbr 500 ------- 1 0.0 2.0 87 87
+ 0.979333 1 2 cbr 500 ------- 1 0.0 2.0 87 87
- 0.979333 1 2 cbr 500 ------- 1 0.0 2.0 87 87
- 0.98 0 1 cbr 500 ------- 1 0.0 2.0 90 90
+ 0.98 0 1 cbr 500 ------- 1 0.0 2.0 96 96
r 0.983333 1 2 cbr 500 ------- 1 0.0 2.0 83 83
r 0.984667 0 1 cbr 500 ------- 1 0.0 2.0 88 88
+ 0.984667 1 2 cbr 500 ------- 1 0.0 2.0 88 88
- 0.984667 1 2 cbr 500 ------- 1 0.0 2.0 88 88
+ 0.985 0 1 cbr 500 ------- 1 0.0 2.0 97 97
- 0.985333 0 1 cbr 500 ------- 1 0.0 2.0 91 91
r 0.988667 1 2 cbr 500 ------- 1 0.0 2.0 84 84
r 0.99 0 1 cbr 500 ------- 1 0.0 2.0 89 89
+ 0.99 1 2 cbr 500 ------- 1 0.0 2.0 89 89
- 0.99 1 2 cbr 500 ------- 1 0.0 2.0 89 89
+ 0.99 0 1 cbr 500 ------- 1 0.0 2.0 98 98
- 0.990667 0 1 cbr 500 ------- 1 0.0 2.0 92 92
r 0.994 1 2 cbr 500 ------- 1 0.0 2.0 85 85
+ 0.995 0 1 cbr 500 ------- 1 0.0 2.0 99 99
r 0.995333 0 1 cbr 500 ------- 1 0.0 2.0 90 90
+ 0.995333 1 2 cbr 500 ------- 1 0.0 2.0 90 90
- 0.995333 1 2 cbr 500 ------- 1 0.0 2.0 90 90
- 0.996 0 1 cbr 500 ------- 1 0.0 2.0 93 93
r 0.999333 1 2 cbr 500 ------- 1 0.0 2.0 86 86
+ 1 1 2 tcp 40 ------- 2 1.0 2.1 0 100
+ 1 0 1 cbr 500 ------- 1 0.0 2.0 100 101
r 1.000667 0 1 cbr 500 ------- 1 0.0 2.0 91 91
+ 1.000667 1 2 cbr 500 ------- 1 0.0 2.0 91 91
- 1.000667 1 2 tcp 40 ------- 2 1.0 2.1 0 100
- 1.001093 1 2 cbr 500 ------- 1 0.0 2.0 91 91
- 1.001333 0 1 cbr 500 ------- 1 0.0 2.0 94 94
r 1.004667 1 2 cbr 500 ------- 1 0.0 2.0 87 87
+ 1.005 0 1 cbr 500 ------- 1 0.0 2.0 101 102
r 1.006 0 1 cbr 500 ------- 1 0.0 2.0 92 92
+ 1.006 1 2 cbr 500 ------- 1 0.0 2.0 92 92
- 1.006427 1 2 cbr 500 ------- 1 0.0 2.0 92 92
- 1.006667 0 1 cbr 500 ------- 1 0.0 2.0 95 95
r 1.01 1 2 cbr 500 ------- 1 0.0 2.0 88 88
+ 1.01 0 1 cbr 500 ------- 1 0.0 2.0 102 103
r 1.011333 0 1 cbr 500 ------- 1 0.0 2.0 93 93
+ 1.011333 1 2 cbr 500 ------- 1 0.0 2.0 93 93
- 1.01176 1 2 cbr 500 ------- 1 0.0 2.0 93 93
- 1.012 0 1 cbr 500 ------- 1 0.0 2.0 96 96
+ 1.015 0 1 cbr 500 ------- 1 0.0 2.0 103 104
r 1.015333 1 2 cbr 500 ------- 1 0.0 2.0 89 89
r 1.016667 0 1 cbr 500 ------- 1 0.0 2.0 94 94
+ 1.016667 1 2 cbr 500 ------- 1 0.0 2.0 94 94
- 1.017093 1 2 cbr 500 ------- 1 0.0 2.0 94 94
- 1.017333 0 1 cbr 500 ------- 1 0.0 2.0 97 97
+ 1.02 0 1 cbr 500 ------- 1 0.0 2.0 104 105
r 1.020667 1 2 cbr 500 ------- 1 0.0 2.0 90 90
r 1.021093 1 2 tcp 40 ------- 2 1.0 2.1 0 100
+ 1.021093 2 1 ack 40 ------- 2 2.1 1.0 0 106
- 1.021093 2 1 ack 40 ------- 2 2.1 1.0 0 106
r 1.022 0 1 cbr 500 ------- 1 0.0 2.0 95 95
+ 1.022 1 2 cbr 500 ------- 1 0.0 2.0 95 95
- 1.022427 1 2 cbr 500 ------- 1 0.0 2.0 95 95
- 1.022667 0 1 cbr 500 ------- 1 0.0 2.0 98 98
+ 1.025 0 1 cbr 500 ------- 1 0.0 2.0 105 107
r 1.026427 1 2 cbr 500 ------- 1 0.0 2.0 91 91
r 1.027333 0 1 cbr 500 ------- 1 0.0 2.0 96 96
+ 1.027333 1 2 cbr 500 ------- 1 0.0 2.0 96 96
- 1.02776 1 2 cbr 500 ------- 1 0.0 2.0 96 96
- 1.028 0 1 cbr 500 ------- 1 0.0 2.0 99 99
+ 1.03 0 1 cbr 500 ------- 1 0.0 2.0 106 108
r 1.03176 1 2 cbr 500 ------- 1 0.0 2.0 92 92
r 1.032667 0 1 cbr 500 ------- 1 0.0 2.0 97 97
+ 1.032667 1 2 cbr 500 ------- 1 0.0 2.0 97 97
- 1.033093 1 2 cbr 500 ------- 1 0.0 2.0 97 97
- 1.033333 0 1 cbr 500 ------- 1 0.0 2.0 100 101
+ 1.035 0 1 cbr 500 ------- 1 0.0 2.0 107 109
r 1.037093 1 2 cbr 500 ------- 1 0.0 2.0 93 93
r 1.038 0 1 cbr 500 ------- 1 0.0 2.0 98 98
+ 1.038 1 2 cbr 500 ------- 1 0.0 2.0 98 98
- 1.038427 1 2 cbr 500 ------- 1 0.0 2.0 98 98
- 1.038667 0 1 cbr 500 ------- 1 0.0 2.0 101 102
+ 1.04 0 1 cbr 500 ------- 1 0.0 2.0 108 110
r 1.04152 2 1 ack 40 ------- 2 2.1 1.0 0 106
+ 1.04152 1 2 tcp 1040 ------- 2 1.0 2.1 1 111
+ 1.04152 1 2 tcp 1040 ------- 2 1.0 2.1 2 112
r 1.042427 1 2 cbr 500 ------- 1 0.0 2.0 94 94
r 1.043333 0 1 cbr 500 ------- 1 0.0 2.0 99 99
+ 1.043333 1 2 cbr 500 ------- 1 0.0 2.0 99 99
- 1.04376 1 2 tcp 1040 ------- 2 1.0 2.1 1 111
- 1.044 0 1 cbr 500 ------- 1 0.0 2.0 102 103
+ 1.045 0 1 cbr 500 ------- 1 0.0 2.0 109 113
r 1.04776 1 2 cbr 500 ------- 1 0.0 2.0 95 95
r 1.048667 0 1 cbr 500 ------- 1 0.0 2.0 100 101
+ 1.048667 1 2 cbr 500 ------- 1 0.0 2.0 100 101
- 1.049333 0 1 cbr 500 ------- 1 0.0 2.0 103 104
+ 1.05 0 1 cbr 500 ------- 1 0.0 2.0 110 114
r 1.053093 1 2 cbr 500 ------- 1 0.0 2.0 96 96
r 1.054 0 1 cbr 500 ------- 1 0.0 2.0 101 102
+ 1.054 1 2 cbr 500 ------- 1 0.0 2.0 101 102
- 1.054667 0 1 cbr 500 ------- 1 0.0 2.0 104 105
- 1.054853 1 2 tcp 1040 ------- 2 1.0 2.1 2 112
+ 1.055 0 1 cbr 500 ------- 1 0.0 2.0 111 115
r 1.058427 1 2 cbr 500 ------- 1 0.0 2.0 97 97
r 1.059333 0 1 cbr 500 ------- 1 0.0 2.0 102 103
+ 1.059333 1 2 cbr 500 ------- 1 0.0 2.0 102 103
- 1.06 0 1 cbr 500 ------- 1 0.0 2.0 105 107
+ 1.06 0 1 cbr 500 ------- 1 0.0 2.0 112 116
r 1.06376 1 2 cbr 500 ------- 1 0.0 2.0 98 98
r 1.064667 0 1 cbr 500 ------- 1 0.0 2.0 103 104
+ 1.064667 1 2 cbr 500 ------- 1 0.0 2.0 103 104
+ 1.065 0 1 cbr 500 ------- 1 0.0 2.0 113 117
- 1.065333 0 1 cbr 500 ------- 1 0.0 2.0 106 108
- 1.065947 1 2 cbr 500 ------- 1 0.0 2.0 99 99
r 1.07 0 1 cbr 500 ------- 1 0.0 2.0 104 105
+ 1.07 1 2 cbr 500 ------- 1 0.0 2.0 104 105
+ 1.07 0 1 cbr 500 ------- 1 0.0 2.0 114 118
- 1.070667 0 1 cbr 500 ------- 1 0.0 2.0 107 109
- 1.07128 1 2 cbr 500 ------- 1 0.0 2.0 100 101
r 1.074853 1 2 tcp 1040 ------- 2 1.0 2.1 1 111
+ 1.074853 2 1 ack 40 ------- 2 2.1 1.0 1 119
- 1.074853 2 1 ack 40 ------- 2 2.1 1.0 1 119
+ 1.075 0 1 cbr 500 ------- 1 0.0 2.0 115 120
r 1.075333 0 1 cbr 500 ------- 1 0.0 2.0 105 107
+ 1.075333 1 2 cbr 500 ------- 1 0.0 2.0 105 107
- 1.076 0 1 cbr 500 ------- 1 0.0 2.0 108 110
- 1.076613 1 2 cbr 500 ------- 1 0.0 2.0 101 102
+ 1.08 0 1 cbr 500 ------- 1 0.0 2.0 116 121
r 1.080667 0 1 cbr 500 ------- 1 0.0 2.0 106 108
+ 1.080667 1 2 cbr 500 ------- 1 0.0 2.0 106 108
- 1.081333 0 1 cbr 500 ------- 1 0.0 2.0 109 113
- 1.081947 1 2 cbr 500 ------- 1 0.0 2.0 102 103
+ 1.085 0 1 cbr 500 ------- 1 0.0 2.0 117 122
r 1.085947 1 2 tcp 1040 ------- 2 1.0 2.1 2 112
+ 1.085947 2 1 ack 40 ------- 2 2.1 1.0 2 123