+ 0.5 1 0 tcp 55 ------- 1 1.0 7.0 0 0
- 0.5 1 0 tcp 55 ------- 1 1.0 7.0 0 0
r 0.51022 1 0 tcp 55 ------- 1 1.0 7.0 0 0
+ 0.51022 0 3 tcp 55 ------- 1 1.0 7.0 0 0
- 0.51022 0 3 tcp 55 ------- 1 1.0 7.0 0 0
r 0.53066 0 3 tcp 55 ------- 1 1.0 7.0 0 0
h 0.53066 3 9 tcp 55 ------- 1 1.0 7.0 0 0
+ 0.57066 3 9 tcp 55 ------- 1 1.0 7.0 0 0
- 0.57066 3 9 tcp 55 ------- 1 1.0 7.0 0 0
r 0.611742 9 7 tcp 55 ------- 1 1.0 7.0 0 0
h 0.611742 7 9 ack 40 ------- 1 7.0 1.0 0 1
+ 0.651742 7 9 ack 40 ------- 1 7.0 1.0 0 1
- 0.651742 7 9 ack 40 ------- 1 7.0 1.0 0 1
r 0.692746 9 3 ack 40 ------- 1 7.0 1.0 0 1
+ 0.692746 3 0 ack 40 ------- 1 7.0 1.0 0 1
- 0.692746 3 0 ack 40 ------- 1 7.0 1.0 0 1
r 0.713066 3 0 ack 40 ------- 1 7.0 1.0 0 1
+ 0.713066 0 1 ack 40 ------- 1 7.0 1.0 0 1
- 0.713066 0 1 ack 40 ------- 1 7.0 1.0 0 1
r 0.723226 0 1 ack 40 ------- 1 7.0 1.0 0 1
+ 0.723226 1 0 tcp 55 ------- 1 1.0 7.0 1 2
- 0.723226 1 0 tcp 55 ------- 1 1.0 7.0 1 2
r 0.733446 1 0 tcp 55 ------- 1 1.0 7.0 1 2
+ 0.733446 0 3 tcp 55 ------- 1 1.0 7.0 1 2
- 0.733446 0 3 tcp 55 ------- 1 1.0 7.0 1 2
r 0.753886 0 3 tcp 55 ------- 1 1.0 7.0 1 2
h 0.753886 3 9 tcp 55 ------- 1 1.0 7.0 1 2
+ 0.793886 3 9 tcp 55 ------- 1 1.0 7.0 1 2
- 0.793886 3 9 tcp 55 ------- 1 1.0 7.0 1 2
r 0.834968 9 7 tcp 55 ------- 1 1.0 7.0 1 2
h 0.834968 7 9 ack 40 ------- 1 7.0 1.0 1 3
+ 0.874968 7 9 ack 40 ------- 1 7.0 1.0 1 3
- 0.874968 7 9 ack 40 ------- 1 7.0 1.0 1 3
r 0.915972 9 3 ack 40 ------- 1 7.0 1.0 1 3
+ 0.915972 3 0 ack 40 ------- 1 7.0 1.0 1 3
- 0.915972 3 0 ack 40 ------- 1 7.0 1.0 1 3
r 0.936292 3 0 ack 40 ------- 1 7.0 1.0 1 3
+ 0.936292 0 1 ack 40 ------- 1 7.0 1.0 1 3
- 0.936292 0 1 ack 40 ------- 1 7.0 1.0 1 3
r 0.946452 0 1 ack 40 ------- 1 7.0 1.0 1 3
+ 0.946452 1 0 tcp 55 ------- 1 1.0 7.0 2 4
- 0.946452 1 0 tcp 55 ------- 1 1.0 7.0 2 4
+ 0.946452 1 0 tcp 55 ------- 1 1.0 7.0 3 5
+ 0.946452 1 0 tcp 55 ------- 1 1.0 7.0 4 6
- 0.946672 1 0 tcp 55 ------- 1 1.0 7.0 3 5
- 0.946892 1 0 tcp 55 ------- 1 1.0 7.0 4 6
r 0.956672 1 0 tcp 55 ------- 1 1.0 7.0 2 4
+ 0.956672 0 3 tcp 55 ------- 1 1.0 7.0 2 4
- 0.956672 0 3 tcp 55 ------- 1 1.0 7.0 2 4
r 0.956892 1 0 tcp 55 ------- 1 1.0 7.0 3 5
+ 0.956892 0 3 tcp 55 ------- 1 1.0 7.0 3 5
r 0.957112 1 0 tcp 55 ------- 1 1.0 7.0 4 6
+ 0.957112 0 3 tcp 55 ------- 1 1.0 7.0 4 6
- 0.957112 0 3 tcp 55 ------- 1 1.0 7.0 3 5
- 0.957552 0 3 tcp 55 ------- 1 1.0 7.0 4 6
r 0.977112 0 3 tcp 55 ------- 1 1.0 7.0 2 4
h 0.977112 3 9 tcp 55 ------- 1 1.0 7.0 2 4
r 0.977552 0 3 tcp 55 ------- 1 1.0 7.0 3 5
h 0.977552 3 9 tcp 55 ------- 1 1.0 7.0 3 5
r 0.977992 0 3 tcp 55 ------- 1 1.0 7.0 4 6
h 0.977992 3 9 tcp 55 ------- 1 1.0 7.0 4 6
+ 1 2 0 tcp 40 ------- 2 2.0 8.0 0 7
- 1 2 0 tcp 40 ------- 2 2.0 8.0 0 7
r 1.01016 2 0 tcp 40 ------- 2 2.0 8.0 0 7
+ 1.01016 0 3 tcp 40 ------- 2 2.0 8.0 0 7
- 1.01016 0 3 tcp 40 ------- 2 2.0 8.0 0 7
+ 1.017112 3 9 tcp 55 ------- 1 1.0 7.0 2 4
- 1.017112 3 9 tcp 55 ------- 1 1.0 7.0 2 4
+ 1.017552 3 9 tcp 55 ------- 1 1.0 7.0 3 5
+ 1.017992 3 9 tcp 55 ------- 1 1.0 7.0 4 6
- 1.018378 3 9 tcp 55 ------- 1 1.0 7.0 3 5
- 1.019644 3 9 tcp 55 ------- 1 1.0 7.0 4 6
r 1.03048 0 3 tcp 40 ------- 2 2.0 8.0 0 7
h 1.03048 3 9 tcp 40 ------- 2 2.0 8.0 0 7
r 1.058194 9 7 tcp 55 ------- 1 1.0 7.0 2 4
h 1.058194 7 9 ack 40 ------- 1 7.0 1.0 2 8
r 1.05946 9 7 tcp 55 ------- 1 1.0 7.0 3 5
h 1.05946 7 9 ack 40 ------- 1 7.0 1.0 3 9
r 1.060726 9 7 tcp 55 ------- 1 1.0 7.0 4 6
h 1.060726 7 9 ack 40 ------- 1 7.0 1.0 4 10
+ 1.07048 3 9 tcp 40 ------- 2 2.0 8.0 0 7
- 1.07048 3 9 tcp 40 ------- 2 2.0 8.0 0 7
+ 1.098194 7 9 ack 40 ------- 1 7.0 1.0 2 8
- 1.098194 7 9 ack 40 ------- 1 7.0 1.0 2 8
+ 1.09946 7 9 ack 40 ------- 1 7.0 1.0 3 9
- 1.09946 7 9 ack 40 ------- 1 7.0 1.0 3 9
+ 1.100726 7 9 ack 40 ------- 1 7.0 1.0 4 10
- 1.100726 7 9 ack 40 ------- 1 7.0 1.0 4 10
r 1.111484 9 8 tcp 40 ------- 2 2.0 8.0 0 7
h 1.111484 8 9 ack 40 ------- 2 8.0 2.0 0 11
r 1.139198 9 3 ack 40 ------- 1 7.0 1.0 2 8
+ 1.139198 3 0 ack 40 ------- 1 7.0 1.0 2 8
- 1.139198 3 0 ack 40 ------- 1 7.0 1.0 2 8
r 1.140464 9 3 ack 40 ------- 1 7.0 1.0 3 9
+ 1.140464 3 0 ack 40 ------- 1 7.0 1.0 3 9
- 1.140464 3 0 ack 40 ------- 1 7.0 1.0 3 9
r 1.14173 9 3 ack 40 ------- 1 7.0 1.0 4 10
+ 1.14173 3 0 ack 40 ------- 1 7.0 1.0 4 10
- 1.14173 3 0 ack 40 ------- 1 7.0 1.0 4 10
+ 1.151484 8 9 ack 40 ------- 2 8.0 2.0 0 11
- 1.151484 8 9 ack 40 ------- 2 8.0 2.0 0 11
r 1.159518 3 0 ack 40 ------- 1 7.0 1.0 2 8
+ 1.159518 0 1 ack 40 ------- 1 7.0 1.0 2 8
- 1.159518 0 1 ack 40 ------- 1 7.0 1.0 2 8
r 1.160784 3 0 ack 40 ------- 1 7.0 1.0 3 9
+ 1.160784 0 1 ack 40 ------- 1 7.0 1.0 3 9
- 1.160784 0 1 ack 40 ------- 1 7.0 1.0 3 9
r 1.16205 3 0 ack 40 ------- 1 7.0 1.0 4 10
+ 1.16205 0 1 ack 40 ------- 1 7.0 1.0 4 10
- 1.16205 0 1 ack 40 ------- 1 7.0 1.0 4 10
r 1.169678 0 1 ack 40 ------- 1 7.0 1.0 2 8
+ 1.169678 1 0 tcp 55 ------- 1 1.0 7.0 5 12
- 1.169678 1 0 tcp 55 ------- 1 1.0 7.0 5 12
r 1.170944 0 1 ack 40 ------- 1 7.0 1.0 3 9
+ 1.170944 1 0 tcp 55 ------- 1 1.0 7.0 6 13
- 1.170944 1 0 tcp 55 ------- 1 1.0 7.0 6 13
r 1.17221 0 1 ack 40 ------- 1 7.0 1.0 4 10
+ 1.17221 1 0 tcp 55 ------- 1 1.0 7.0 7 14
- 1.17221 1 0 tcp 55 ------- 1 1.0 7.0 7 14
r 1.179898 1 0 tcp 55 ------- 1 1.0 7.0 5 12
+ 1.179898 0 3 tcp 55 ------- 1 1.0 7.0 5 12
- 1.179898 0 3 tcp 55 ------- 1 1.0 7.0 5 12
r 1.181164 1 0 tcp 55 ------- 1 1.0 7.0 6 13
+ 1.181164 0 3 tcp 55 ------- 1 1.0 7.0 6 13
- 1.181164 0 3 tcp 55 ------- 1 1.0 7.0 6 13
r 1.18243 1 0 tcp 55 ------- 1 1.0 7.0 7 14
+ 1.18243 0 3 tcp 55 ------- 1 1.0 7.0 7 14
- 1.18243 0 3 tcp 55 ------- 1 1.0 7.0 7 14
r 1.192488 9 3 ack 40 ------- 2 8.0 2.0 0 11
+ 1.192488 3 0 ack 40 ------- 2 8.0 2.0 0 11
- 1.192488 3 0 ack 40 ------- 2 8.0 2.0 0 11
r 1.200338 0 3 tcp 55 ------- 1 1.0 7.0 5 12
h 1.200338 3 9 tcp 55 ------- 1 1.0 7.0 5 12
r 1.201604 0 3 tcp 55 ------- 1 1.0 7.0 6 13
h 1.201604 3 9 tcp 55 ------- 1 1.0 7.0 6 13
r 1.20287 0 3 tcp 55 ------- 1 1.0 7.0 7 14
h 1.20287 3 9 tcp 55 ------- 1 1.0 7.0 7 14
r 1.212808 3 0 ack 40 ------- 2 8.0 2.0 0 11
+ 1.212808 0 2 ack 40 ------- 2 8.0 2.0 0 11
- 1.212808 0 2 ack 40 ------- 2 8.0 2.0 0 11
r 1.222968 0 2 ack 40 ------- 2 8.0 2.0 0 11
+ 1.222968 2 0 tcp 95 ------- 2 2.0 8.0 1 15
- 1.222968 2 0 tcp 95 ------- 2 2.0 8.0 1 15
+ 1.222968 2 0 tcp 95 ------- 2 2.0 8.0 2 16
- 1.223348 2 0 tcp 95 ------- 2 2.0 8.0 2 16
r 1.233348 2 0 tcp 95 ------- 2 2.0 8.0 1 15
+ 1.233348 0 3 tcp 95 ------- 2 2.0 8.0 1 15
- 1.233348 0 3 tcp 95 ------- 2 2.0 8.0 1 15
r 1.233728 2 0 tcp 95 ------- 2 2.0 8.0 2 16
+ 1.233728 0 3 tcp 95 ------- 2 2.0 8.0 2 16
- 1.234108 0 3 tcp 95 ------- 2 2.0 8.0 2 16
+ 1.240338 3 9 tcp 55 ------- 1 1.0 7.0 5 12
- 1.240338 3 9 tcp 55 ------- 1 1.0 7.0 5 12
+ 1.241604 3 9 tcp 55 ------- 1 1.0 7.0 6 13
- 1.241604 3 9 tcp 55 ------- 1 1.0 7.0 6 13
+ 1.24287 3 9 tcp 55 ------- 1 1.0 7.0 7 14
- 1.24287 3 9 tcp 55 ------- 1 1.0 7.0 7 14
r 1.254108 0 3 tcp 95 ------- 2 2.0 8.0 1 15
h 1.254108 3 9 tcp 95 ------- 2 2.0 8.0 1 15
r 1.254868 0 3 tcp 95 ------- 2 2.0 8.0 2 16
h 1.254868 3 9 tcp 95 ------- 2 2.0 8.0 2 16
r 1.28142 9 7 tcp 55 ------- 1 1.0 7.0 5 12
h 1.28142 7 9 ack 40 ------- 1 7.0 1.0 5 17
r 1.282686 9 7 tcp 55 ------- 1 1.0 7.0 6 13
h 1.282686 7 9 ack 40 ------- 1 7.0 1.0 6 18
r 1.283952 9 7 tcp 55 ------- 1 1.0 7.0 7 14
h 1.283952 7 9 ack 40 ------- 1 7.0 1.0 7 19
+ 1.294108 3 9 tcp 95 ------- 2 2.0 8.0 1 15
- 1.294108 3 9 tcp 95 ------- 2 2.0 8.0 1 15
+ 1.294868 3 9 tcp 95 ------- 2 2.0 8.0 2 16
- 1.295999 3 9 tcp 95 ------- 2 2.0 8.0 2 16
+ 1.321421 7 9 ack 40 ------- 1 7.0 1.0 5 17
- 1.321421 7 9 ack 40 ------- 1 7.0 1.0 5 17
+ 1.322686 7 9 ack 40 ------- 1 7.0 1.0 6 18
- 1.322686 7 9 ack 40 ------- 1 7.0 1.0 6 18
+ 1.323952 7 9 ack 40 ------- 1 7.0 1.0 7 19
- 1.323952 7 9 ack 40 ------- 1 7.0 1.0 7 19
r 1.335815 9 8 tcp 95 ------- 2 2.0 8.0 1 15
h 1.335815 8 9 ack 40 ------- 2 8.0 2.0 1 20
r 1.337706 9 8 tcp 95 ------- 2 2.0 8.0 2 16
h 1.337706 8 9 ack 40 ------- 2 8.0 2.0 2 21
r 1.362424 9 3 ack 40 ------- 1 7.0 1.0 5 17
+ 1.362424 3 0 ack 40 ------- 1 7.0 1.0 5 17
- 1.362424 3 0 ack 40 ------- 1 7.0 1.0 5 17
r 1.36369 9 3 ack 40 ------- 1 7.0 1.0 6 18
+ 1.36369 3 0 ack 40 ------- 1 7.0 1.0 6 18
- 1.36369 3 0 ack 40 ------- 1 7.0 1.0 6 18
r 1.364956 9 3 ack 40 ------- 1 7.0 1.0 7 19
+ 1.364956 3 0 ack 40 ------- 1 7.0 1.0 7 19
- 1.364956 3 0 ack 40 ------- 1 7.0 1.0 7 19
+ 1.375815 8 9 ack 40 ------- 2 8.0 2.0 1 20
- 1.375815 8 9 ack 40 ------- 2 8.0 2.0 1 20
+ 1.377706 8 9 ack 40 ------- 2 8.0 2.0 2 21
- 1.377706 8 9 ack 40 ------- 2 8.0 2.0 2 21
r 1.382744 3 0 ack 40 ------- 1 7.0 1.0 5 17
+ 1.382744 0 1 ack 40 ------- 1 7.0 1.0 5 17
- 1.382744 0 1 ack 40 ------- 1 7.0 1.0 5 17
r 1.38401 3 0 ack 40 ------- 1 7.0 1.0 6 18
+ 1.38401 0 1 ack 40 ------- 1 7.0 1.0 6 18
- 1.38401 0 1 ack 40 ------- 1 7.0 1.0 6 18
r 1.385276 3 0 ack 40 ------- 1 7.0 1.0 7 19
+ 1.385276 0 1 ack 40 ------- 1 7.0 1.0 7 19
- 1.385276 0 1 ack 40 ------- 1 7.0 1.0 7 19
r 1.392904 0 1 ack 40 ------- 1 7.0 1.0 5 17
+ 1.392904 1 0 tcp 55 ------- 1 1.0 7.0 8 22
- 1.392904 1 0 tcp 55 ------- 1 1.0 7.0 8 22
+ 1.392904 1 0 tcp 55 ------- 1 1.0 7.0 9 23
- 1.393124 1 0 tcp 55 ------- 1 1.0 7.0 9 23
r 1.39417 0 1 ack 40 ------- 1 7.0 1.0 6 18
+ 1.39417 1 0 tcp 55 ------- 1 1.0 7.0 10 24
- 1.39417 1 0 tcp 55 ------- 1 1.0 7.0 10 24
+ 1.39417 1 0 tcp 55 ------- 1 1.0 7.0 11 25
- 1.39439 1 0 tcp 55 ------- 1 1.0 7.0 11 25
r 1.395436 0 1 ack 40 ------- 1 7.0 1.0 7 19
+ 1.395436 1 0 tcp 55 ------- 1 1.0 7.0 12 26
- 1.395436 1 0 tcp 55 ------- 1 1.0 7.0 12 26
+ 1.395436 1 0 tcp 55 ------- 1 1.0 7.0 13 27
- 1.395656 1 0 tcp 55 ------- 1 1.0 7.0 13 27
r 1.403124 1 0 tcp 55 ------- 1 1.0 7.0 8 22
+ 1.403124 0 3 tcp 55 ------- 1 1.0 7.0 8 22
- 1.403124 0 3 tcp 55 ------- 1 1.0 7.0 8 22
r 1.403344 1 0 tcp 55 ------- 1 1.0 7.0 9 23
+ 1.403344 0 3 tcp 55 ------- 1 1.0 7.0 9 23
- 1.403564 0 3 tcp 55 ------- 1 1.0 7.0 9 23
r 1.40439 1 0 tcp 55 ------- 1 1.0 7.0 10 24
+ 1.40439 0 3 tcp 55 ------- 1 1.0 7.0 10 24
- 1.40439 0 3 tcp 55 ------- 1 1.0 7.0 10 24
r 1.40461 1 0 tcp 55 ------- 1 1.0 7.0 11 25
+ 1.40461 0 3 tcp 55 ------- 1 1.0 7.0 11 25
- 1.40483 0 3 tcp 55 ------- 1 1.0 7.0 11 25
r 1.405656 1 0 tcp 55 ------- 1 1.0 7.0 12 26
+ 1.405656 0 3 tcp 55 ------- 1 1.0 7.0 12 26
- 1.405656 0 3 tcp 55 ------- 1 1.0 7.0 12 26
r 1.405876 1 0 tcp 55 ------- 1 1.0 7.0 13 27
+ 1.405876 0 3 tcp 55 ------- 1 1.0 7.0 13 27
- 1.406096 0 3 tcp 55 ------- 1 1.0 7.0 13 27
r 1.416819 9 3 ack 40 ------- 2 8.0 2.0 1 20
+ 1.416819 3 0 ack 40 ------- 2 8.0 2.0 1 20
- 1.416819 3 0 ack 40 ------- 2 8.0 2.0 1 20
r 1.41871 9 3 ack 40 ------- 2 8.0 2.0 2 21
+ 1.41871 3 0 ack 40 ------- 2 8.0 2.0 2 21
- 1.41871 3 0 ack 40 ------- 2 8.0 2.0 2 21
r 1.423564 0 3 tcp 55 ------- 1 1.0 7.0 8 22
h 1.423564 3 9 tcp 55 ------- 1 1.0 7.0 8 22
r 1.424004 0 3 tcp 55 ------- 1 1.0 7.0 9 23
h 1.424004 3 9 tcp 55 ------- 1 1.0 7.0 9 23
r 1.42483 0 3 tcp 55 ------- 1 1.0 7.0 10 24
h 1.42483 3 9 tcp 55 ------- 1 1.0 7.0 10 24
r 1.42527 0 3 tcp 55 ------- 1 1.0 7.0 11 25
h 1.42527 3 9 tcp 55 ------- 1 1.0 7.0 11 25
r 1.426096 0 3 tcp 55 ------- 1 1.0 7.0 12 26
h 1.426096 3 9 tcp 55 ------- 1 1.0 7.0 12 26
r 1.426536 0 3 tcp 55 ------- 1 1.0 7.0 13 27
h 1.426536 3 9 tcp 55 ------- 1 1.0 7.0 13 27
r 1.437139 3 0 ack 40 ------- 2 8.0 2.0 1 20
+ 1.437139 0 2 ack 40 ------- 2 8.0 2.0 1 20
- 1.437139 0 2 ack 40 ------- 2 8.0 2.0 1 20
r 1.43903 3 0 ack 40 ------- 2 8.0 2.0 2 21
+ 1.43903 0 2 ack 40 ------- 2 8.0 2.0 2 21
- 1.43903 0 2 ack 40 ------- 2 8.0 2.0 2 21
r 1.447299 0 2 ack 40 ------- 2 8.0 2.0 1 20
+ 1.447299 2 0 tcp 95 ------- 2 2.0 8.0 3 28
- 1.447299 2 0 tcp 95 ------- 2 2.0 8.0 3 28
+ 1.447299 2 0 tcp 95 ------- 2 2.0 8.0 4 29
- 1.447679 2 0 tcp 95 ------- 2 2.0 8.0 4 29
r 1.44919 0 2 ack 40 ------- 2 8.0 2.0 2 21
+ 1.44919 2 0 tcp 95 ------- 2 2.0 8.0 5 30
- 1.44919 2 0 tcp 95 ------- 2 2.0 8.0 5 30
+ 1.44919 2 0 tcp 95 ------- 2 2.0 8.0 6 31
- 1.44957 2 0 tcp 95 ------- 2 2.0 8.0 6 31
r 1.457679 2 0 tcp 95 ------- 2 2.0 8.0 3 28
+ 1.457679 0 3 tcp 95 ------- 2 2.0 8.0 3 28
- 1.457679 0 3 tcp 95 ------- 2 2.0 8.0 3 28
r 1.458059 2 0 tcp 95 ------- 2 2.0 8.0 4 29
+ 1.458059 0 3 tcp 95 ------- 2 2.0 8.0 4 29
- 1.458439 0 3 tcp 95 ------- 2 2.0 8.0 4 29
r 1.45957 2 0 tcp 95 ------- 2 2.0 8.0 5 30
+ 1.45957 0 3 tcp 95 ------- 2 2.0 8.0 5 30
- 1.45957 0 3 tcp 95 ------- 2 2.0 8.0 5 30
r 1.45995 2 0 tcp 95 ------- 2 2.0 8.0 6 31
+ 1.45995 0 3 tcp 95 ------- 2 2.0 8.0 6 31
- 1.46033 0 3 tcp 95 ------- 2 2.0 8.0 6 31
+ 1.463564 3 9 tcp 55 ------- 1 1.0 7.0 8 22
- 1.463564 3 9 tcp 55 ------- 1 1.0 7.0 8 22
+ 1.464004 3 9 tcp 55 ------- 1 1.0 7.0 9 23
+ 1.46483 3 9 tcp 55 ------- 1 1.0 7.0 10 24
- 1.46483 3 9 tcp 55 ------- 1 1.0 7.0 9 23
+ 1.46527 3 9 tcp 55 ------- 1 1.0 7.0 11 25
+ 1.466096 3 9 tcp 55 ------- 1 1.0 7.0 12 26
- 1.466096 3 9 tcp 55 ------- 1 1.0 7.0 10 24
+ 1.466536 3 9 tcp 55 ------- 1 1.0 7.0 13 27
- 1.467361 3 9 tcp 55 ------- 1 1.0 7.0 11 25
- 1.468627 3 9 tcp 55 ------- 1 1.0 7.0 12 26
- 1.469893 3 9 tcp 55 ------- 1 1.0 7.0 13 27
r 1.478439 0 3 tcp 95 ------- 2 2.0 8.0 3 28
h 1.478439 3 9 tcp 95 ------- 2 2.0 8.0 3 28
r 1.479199 0 3 tcp 95 ------- 2 2.0 8.0 4 29
h 1.479199 3 9 tcp 95 ------- 2 2.0 8.0 4 29
r 1.48033 0 3 tcp 95 ------- 2 2.0 8.0 5 30
h 1.48033 3 9 tcp 95 ------- 2 2.0 8.0 5 30
r 1.48109 0 3 tcp 95 ------- 2 2.0 8.0 6 31
h 1.48109 3 9 tcp 95 ------- 2 2.0 8.0 6 31
r 1.504647 9 7 tcp 55 ------- 1 1.0 7.0 8 22
h 1.504647 7 9 ack 40 ------- 1 7.0 1.0 8 32
r 1.505912 9 7 tcp 55 ------- 1 1.0 7.0 9 23
h 1.505912 7 9 ack 40 ------- 1 7.0 1.0 9 33
r 1.507178 9 7 tcp 55 ------- 1 1.0 7.0 10 24
h 1.507178 7 9 ack 40 ------- 1 7.0 1.0 10 34
r 1.508443 9 7 tcp 55 ------- 1 1.0 7.0 11 25
h 1.508443 7 9 ack 40 ------- 1 7.0 1.0 11 35
r 1.509709 9 7 tcp 55 ------- 1 1.0 7.0 12 26
h 1.509709 7 9 ack 40 ------- 1 7.0 1.0 12 36
r 1.510975 9 7 tcp 55 ------- 1 1.0 7.0 13 27
h 1.510975 7 9 ack 40 ------- 1 7.0 1.0 13 37
+ 1.518439 3 9 tcp 95 ------- 2 2.0 8.0 3 28
- 1.518439 3 9 tcp 95 ------- 2 2.0 8.0 3 28
+ 1.519199 3 9 tcp 95 ------- 2 2.0 8.0 4 29
- 1.52033 3 9 tcp 95 ------- 2 2.0 8.0 4 29
+ 1.52033 3 9 tcp 95 ------- 2 2.0 8.0 5 30
+ 1.52109 3 9 tcp 95 ------- 2 2.0 8.0 6 31
- 1.52222 3 9 tcp 95 ------- 2 2.0 8.0 5 30
- 1.524111 3 9 tcp 95 ------- 2 2.0 8.0 6 31
+ 1.544647 7 9 ack 40 ------- 1 7.0 1.0 8 32
- 1.544647 7 9 ack 40 ------- 1 7.0 1.0 8 32
+ 1.545912 7 9 ack 40 ------- 1 7.0 1.0 9 33
- 1.545912 7 9 ack 40 ------- 1 7.0 1.0 9 33
+ 1.547178 7 9 ack 40 ------- 1 7.0 1.0 10 34
- 1.547178 7 9 ack 40 ------- 1 7.0 1.0 10 34
+ 1.548443 7 9 ack 40 ------- 1 7.0 1.0 11 35
- 1.548443 7 9 ack 40 ------- 1 7.0 1.0 11 35
+ 1.549709 7 9 ack 40 ------- 1 7.0 1.0 12 36
- 1.549709 7 9 ack 40 ------- 1 7.0 1.0 12 36
+ 1.550975 7 9 ack 40 ------- 1 7.0 1.0 13 37
- 1.550975 7 9 ack 40 ------- 1 7.0 1.0 13 37
r 1.560146 9 8 tcp 95 ------- 2 2.0 8.0 3 28
h 1.560146 8 9 ack 40 ------- 2 8.0 2.0 3 38
r 1.562037 9 8 tcp 95 ------- 2 2.0 8.0 4 29
h 1.562037 8 9 ack 40 ------- 2 8.0 2.0 4 39
r 1.563927 9 8 tcp 95 ------- 2 2.0 8.0 5 30
h 1.563927 8 9 ack 40 ------- 2 8.0 2.0 5 40
r 1.565818 9 8 tcp 95 ------- 2 2.0 8.0 6 31
h 1.565818 8 9 ack 40 ------- 2 8.0 2.0 6 41
r 1.585651 9 3 ack 40 ------- 1 7.0 1.0 8 32
+ 1.585651 3 0 ack 40 ------- 1 7.0 1.0 8 32
- 1.585651 3 0 ack 40 ------- 1 7.0 1.0 8 32
r 1.586916 9 3 ack 40 ------- 1 7.0 1.0 9 33
+ 1.586916 3 0 ack 40 ------- 1 7.0 1.0 9 33
- 1.586916 3 0 ack 40 ------- 1 7.0 1.0 9 33
r 1.588182 9 3 ack 40 ------- 1 7.0 1.0 10 34
+ 1.588182 3 0 ack 40 ------- 1 7.0 1.0 10 34
- 1.588182 3 0 ack 40 ------- 1 7.0 1.0 10 34
r 1.589447 9 3 ack 40 ------- 1 7.0 1.0 11 35
+ 1.589447 3 0 ack 40 ------- 1 7.0 1.0 11 35
- 1.589447 3 0 ack 40 ------- 1 7.0 1.0 11 35
r 1.590713 9 3 ack 40 ------- 1 7.0 1.0 12 36
+ 1.590713 3 0 ack 40 ------- 1 7.0 1.0 12 36
- 1.590713 3 0 ack 40 ------- 1 7.0 1.0 12 36
r 1.591979 9 3 ack 40 ------- 1 7.0 1.0 13 37
+ 1.591979 3 0 ack 40 ------- 1 7.0 1.0 13 37
- 1.591979 3 0 ack 40 ------- 1 7.0 1.0 13 37
+ 1.600146 8 9 ack 40 ------- 2 8.0 2.0 3 38
- 1.600146 8 9 ack 40 ------- 2 8.0 2.0 3 38
+ 1.602037 8 9 ack 40 ------- 2 8.0 2.0 4 39
- 1.602037 8 9 ack 40 ------- 2 8.0 2.0 4 39
+ 1.603927 8 9 ack 40 ------- 2 8.0 2.0 5 40
- 1.603927 8 9 ack 40 ------- 2 8.0 2.0 5 40
+ 1.605818 8 9 ack 40 ------- 2 8.0 2.0 6 41
- 1.605818 8 9 ack 40 ------- 2 8.0 2.0 6 41
r 1.605971 3 0 ack 40 ------- 1 7.0 1.0 8 32
+ 1.605971 0 1 ack 40 ------- 1 7.0 1.0 8 32
- 1.605971 0 1 ack 40 ------- 1 7.0 1.0 8 32
r 1.607236 3 0 ack 40 ------- 1 7.0 1.0 9 33
+ 1.607236 0 1 ack 40 ------- 1 7.0 1.0 9 33
- 1.607236 0 1 ack 40 ------- 1 7.0 1.0 9 33
r 1.608502 3 0 ack 40 ------- 1 7.0 1.0 10 34
+ 1.608502 0 1 ack 40 ------- 1 7.0 1.0 10 34
- 1.608502 0 1 ack 40 ------- 1 7.0 1.0 10 34
r 1.609767 3 0 ack 40 ------- 1 7.0 1.0 11 35
+ 1.609767 0 1 ack 40 ------- 1 7.0 1.0 11 35
- 1.609767 0 1 ack 40 ------- 1 7.0 1.0 11 35
r 1.611033 3 0 ack 40 ------- 1 7.0 1.0 12 36
+ 1.611033 0 1 ack 40 ------- 1 7.0 1.0 12 36
- 1.611033 0 1 ack 40 ------- 1 7.0 1.0 12 36
r 1.612299 3 0 ack 40 ------- 1 7.0 1.0 13 37
+ 1.612299 0 1 ack 40 ------- 1 7.0 1.0 13 37
- 1.612299 0 1 ack 40 ------- 1 7.0 1.0 13 37
r 1.616131 0 1 ack 40 ------- 1 7.0 1.0 8 32
+ 1.616131 1 0 tcp 55 ------- 1 1.0 7.0 14 42
- 1.616131 1 0 tcp 55 ------- 1 1.0 7.0 14 42
r 1.617396 0 1 ack 40 ------- 1 7.0 1.0 9 33
+ 1.617396 1 0 tcp 55 ------- 1 1.0 7.0 15 43
- 1.617396 1 0 tcp 55 ------- 1 1.0 7.0 15 43
r 1.618662 0 1 ack 40 ------- 1 7.0 1.0 10 34
+ 1.618662 1 0 tcp 55 ------- 1 1.0 7.0 16 44
- 1.618662 1 0 tcp 55 ------- 1 1.0 7.0 16 44
r 1.619927 0 1 ack 40 ------- 1 7.0 1.0 11 35
+ 1.619927 1 0 tcp 55 ------- 1 1.0 7.0 17 45
- 1.619927 1 0 tcp 55 ------- 1 1.0 7.0 17 45
r 1.621193 0 1 ack 40 ------- 1 7.0 1.0 12 36
+ 1.621193 1 0 tcp 55 ------- 1 1.0 7.0 18 46
- 1.621193 1 0 tcp 55 ------- 1 1.0 7.0 18 46
r 1.622459 0 1 ack 40 ------- 1 7.0 1.0 13 37
+ 1.622459 1 0 tcp 55 ------- 1 1.0 7.0 19 47
- 1.622459 1 0 tcp 55 ------- 1 1.0 7.0 19 47
r 1.626351 1 0 tcp 55 ------- 1 1.0 7.0 14 42
+ 1.626351 0 3 tcp 55 ------- 1 1.0 7.0 14 42
- 1.626351 0 3 tcp 55 ------- 1 1.0 7.0 14 42
r 1.627616 1 0 tcp 55 ------- 1 1.0 7.0 15 43
+ 1.627616 0 3 tcp 55 ------- 1 1.0 7.0 15 43
- 1.627616 0 3 tcp 55 ------- 1 1.0 7.0 15 43
r 1.628882 1 0 tcp 55 ------- 1 1.0 7.0 16 44
+ 1.628882 0 3 tcp 55 ------- 1 1.0 7.0 16 44
- 1.628882 0 3 tcp 55 ------- 1 1.0 7.0 16 44
r 1.630147 1 0 tcp 55 ------- 1 1.0 7.0 17 45
+ 1.630147 0 3 tcp 55 ------- 1 1.0 7.0 17 45
- 1.630147 0 3 tcp 55 ------- 1 1.0 7.0 17 45
r 1.631413 1 0 tcp 55 ------- 1 1.0 7.0 18 46
+ 1.631413 0 3 tcp 55 ------- 1 1.0 7.0 18 46
- 1.631413 0 3 tcp 55 ------- 1 1.0 7.0 18 46
r 1.632679 1 0 tcp 55 ------- 1 1.0 7.0 19 47
+ 1.632679 0 3 tcp 55 ------- 1 1.0 7.0 19 47
- 1.632679 0 3 tcp 55 ------- 1 1.0 7.0 19 47
r 1.64115 9 3 ack 40 ------- 2 8.0 2.0 3 38
+ 1.64115 3 0 ack 40 ------- 2 8.0 2.0 3 38
- 1.64115 3 0 ack 40 ------- 2 8.0 2.0 3 38
r 1.643041 9 3 ack 40 ------- 2 8.0 2.0 4 39
+ 1.643041 3 0 ack 40 ------- 2 8.0 2.0 4 39
- 1.643041 3 0 ack 40 ------- 2 8.0 2.0 4 39
r 1.644931 9 3 ack 40 ------- 2 8.0 2.0 5 40
+ 1.644931 3 0 ack 40 ------- 2 8.0 2.0 5 40
- 1.644931 3 0 ack 40 ------- 2 8.0 2.0 5 40
r 1.646791 0 3 tcp 55 ------- 1 1.0 7.0 14 42
h 1.646791 3 9 tcp 55 ------- 1 1.0 7.0 14 42
r 1.646822 9 3 ack 40 ------- 2 8.0 2.0 6 41
+ 1.646822 3 0 ack 40 ------- 2 8.0 2.0 6 41
- 1.646822 3 0 ack 40 ------- 2 8.0 2.0 6 41
r 1.648056 0 3 tcp 55 ------- 1 1.0 7.0 15 43
h 1.648056 3 9 tcp 55 ------- 1 1.0 7.0 15 43
r 1.649322 0 3 tcp 55 ------- 1 1.0 7.0 16 44
h 1.649322 3 9 tcp 55 ------- 1 1.0 7.0 16 44
r 1.650587 0 3 tcp 55 ------- 1 1.0 7.0 17 45
h 1.650587 3 9 tcp 55 ------- 1 1.0 7.0 17 45
r 1.651853 0 3 tcp 55 ------- 1 1.0 7.0 18 46
h 1.651853 3 9 tcp 55 ------- 1 1.0 7.0 18 46
r 1.653119 0 3 tcp 55 ------- 1 1.0 7.0 19 47
h 1.653119 3 9 tcp 55 ------- 1 1.0 7.0 19 47
r 1.66147 3 0 ack 40 ------- 2 8.0 2.0 3 38
+ 1.66147 0 2 ack 40 ------- 2 8.0 2.0 3 38
- 1.66147 0 2 ack 40 ------- 2 8.0 2.0 3 38
r 1.663361 3 0 ack 40 ------- 2 8.0 2.0 4 39
+ 1.663361 0 2 ack 40 ------- 2 8.0 2.0 4 39
- 1.663361 0 2 ack 40 ------- 2 8.0 2.0 4 39
r 1.665251 3 0 ack 40 ------- 2 8.0 2.0 5 40
+ 1.665251 0 2 ack 40 ------- 2 8.0 2.0 5 40
- 1.665251 0 2 ack 40 ------- 2 8.0 2.0 5 40
r 1.667142 3 0 ack 40 ------- 2 8.0 2.0 6 41
+ 1.667142 0 2 ack 40 ------- 2 8.0 2.0 6 41
- 1.667142 0 2 ack 40 ------- 2 8.0 2.0 6 41
r 1.67163 0 2 ack 40 ------- 2 8.0 2.0 3 38
+ 1.67163 2 0 tcp 95 ------- 2 2.0 8.0 7 48
- 1.67163 2 0 tcp 95 ------- 2 2.0 8.0 7 48
+ 1.67163 2 0 tcp 95 ------- 2 2.0 8.0 8 49
- 1.67201 2 0 tcp 95 ------- 2 2.0 8.0 8 49
r 1.673521 0 2 ack 40 ------- 2 8.0 2.0 4 39
+ 1.673521 2 0 tcp 95 ------- 2 2.0 8.0 9 50
- 1.673521 2 0 tcp 95 ------- 2 2.0 8.0 9 50
+ 1.673521 2 0 tcp 95 ------- 2 2.0 8.0 10 51
- 1.673901 2 0 tcp 95 ------- 2 2.0 8.0 10 51
r 1.675411 0 2 ack 40 ------- 2 8.0 2.0 5 40
+ 1.675411 2 0 tcp 95 ------- 2 2.0 8.0 11 52
- 1.675411 2 0 tcp 95 ------- 2 2.0 8.0 11 52
+ 1.675411 2 0 tcp 95 ------- 2 2.0 8.0 12 53
- 1.675791 2 0 tcp 95 ------- 2 2.0 8.0 12 53
r 1.677302 0 2 ack 40 ------- 2 8.0 2.0 6 41
+ 1.677302 2 0 tcp 95 ------- 2 2.0 8.0 13 54
- 1.677302 2 0 tcp 95 ------- 2 2.0 8.0 13 54
+ 1.677302 2 0 tcp 95 ------- 2 2.0 8.0 14 55
- 1.677682 2 0 tcp 95 ------- 2 2.0 8.0 14 55
r 1.68201 2 0 tcp 95 ------- 2 2.0 8.0 7 48
+ 1.68201 0 3 tcp 95 ------- 2 2.0 8.0 7 48
- 1.68201 0 3 tcp 95 ------- 2 2.0 8.0 7 48
r 1.68239 2 0 tcp 95 ------- 2 2.0 8.0 8 49
+ 1.68239 0 3 tcp 95 ------- 2 2.0 8.0 8 49
- 1.68277 0 3 tcp 95 ------- 2 2.0 8.0 8 49
r 1.683901 2 0 tcp 95 ------- 2 2.0 8.0 9 50
+ 1.683901 0 3 tcp 95 ------- 2 2.0 8.0 9 50
- 1.683901 0 3 tcp 95 ------- 2 2.0 8.0 9 50
r 1.684281 2 0 tcp 95 ------- 2 2.0 8.0 10 51
+ 1.684281 0 3 tcp 95 ------- 2 2.0 8.0 10 51
- 1.684661 0 3 tcp 95 ------- 2 2.0 8.0 10 51
r 1.685791 2 0 tcp 95 ------- 2 2.0 8.0 11 52
+ 1.685791 0 3 tcp 95 ------- 2 2.0 8.0 11 52
- 1.685791 0 3 tcp 95 ------- 2 2.0 8.0 11 52
r 1.686171 2 0 tcp 95 ------- 2 2.0 8.0 12 53
+ 1.686171 0 3 tcp 95 ------- 2 2.0 8.0 12 53
- 1.686551 0 3 tcp 95 ------- 2 2.0 8.0 12 53
+ 1.686791 3 9 tcp 55 ------- 1 1.0 7.0 14 42
- 1.686791 3 9 tcp 55 ------- 1 1.0 7.0 14 42
r 1.687682 2 0 tcp 95 ------- 2 2.0 8.0 13 54
+ 1.687682 0 3 tcp 95 ------- 2 2.0 8.0 13 54
- 1.687682 0 3 tcp 95 ------- 2 2.0 8.0 13 54
+ 1.688056 3 9 tcp 55 ------- 1 1.0 7.0 15 43
- 1.688056 3 9 tcp 55 ------- 1 1.0 7.0 15 43
r 1.688062 2 0 tcp 95 ------- 2 2.0 8.0 14 55
+ 1.688062 0 3 tcp 95 ------- 2 2.0 8.0 14 55
- 1.688442 0 3 tcp 95 ------- 2 2.0 8.0 14 55
+ 1.689322 3 9 tcp 55 ------- 1 1.0 7.0 16 44
- 1.689322 3 9 tcp 55 ------- 1 1.0 7.0 16 44
+ 1.690587 3 9 tcp 55 ------- 1 1.0 7.0 17 45
- 1.690587 3 9 tcp 55 ------- 1 1.0 7.0 17 45
+ 1.691853 3 9 tcp 55 ------- 1 1.0 7.0 18 46
- 1.691853 3 9 tcp 55 ------- 1 1.0 7.0 18 46
+ 1.693119 3 9 tcp 55 ------- 1 1.0 7.0 19 47
- 1.693119 3 9 tcp 55 ------- 1 1.0 7.0 19 47
r 1.70277 0 3 tcp 95 ------- 2 2.0 8.0 7 48
h 1.70277 3 9 tcp 95 ------- 2 2.0 8.0 7 48
r 1.70353 0 3 tcp 95 ------- 2 2.0 8.0 8 49
h 1.70353 3 9 tcp 95 ------- 2 2.0 8.0 8 49
r 1.704661 0 3 tcp 95 ------- 2 2.0 8.0 9 50
h 1.704661 3 9 tcp 95 ------- 2 2.0 8.0 9 50
r 1.705421 0 3 tcp 95 ------- 2 2.0 8.0 10 51
h 1.705421 3 9 tcp 95 ------- 2 2.0 8.0 10 51
r 1.706551 0 3 tcp 95 ------- 2 2.0 8.0 11 52
h 1.706551 3 9 tcp 95 ------- 2 2.0 8.0 11 52
r 1.707311 0 3 tcp 95 ------- 2 2.0 8.0 12 53
h 1.707311 3 9 tcp 95 ------- 2 2.0 8.0 12 53
r 1.708442 0 3 tcp 95 ------- 2 2.0 8.0 13 54
h 1.708442 3 9 tcp 95 ------- 2 2.0 8.0 13 54
r 1.709202 0 3 tcp 95 ------- 2 2.0 8.0 14 55
h 1.709202 3 9 tcp 95 ------- 2 2.0 8.0 14 55
r 1.727873 9 7 tcp 55 ------- 1 1.0 7.0 14 42
h 1.727873 7 9 ack 40 ------- 1 7.0 1.0 14 56
r 1.729138 9 7 tcp 55 ------- 1 1.0 7.0 15 43
h 1.729138 7 9 ack 40 ------- 1 7.0 1.0 15 57
r 1.730404 9 7 tcp 55 ------- 1 1.0 7.0 16 44
h 1.730404 7 9 ack 40 ------- 1 7.0 1.0 16 58
r 1.73167 9 7 tcp 55 ------- 1 1.0 7.0 17 45
h 1.73167 7 9 ack 40 ------- 1 7.0 1.0 17 59
r 1.732935 9 7 tcp 55 ------- 1 1.0 7.0 18 46
h 1.732935 7 9 ack 40 ------- 1 7.0 1.0 18 60
r 1.734201 9 7 tcp 55 ------- 1 1.0 7.0 19 47
h 1.734201 7 9 ack 40 ------- 1 7.0 1.0 19 61
+ 1.74277 3 9 tcp 95 ------- 2 2.0 8.0 7 48
- 1.74277 3 9 tcp 95 ------- 2 2.0 8.0 7 48
+ 1.74353 3 9 tcp 95 ------- 2 2.0 8.0 8 49
- 1.744661 3 9 tcp 95 ------- 2 2.0 8.0 8 49
+ 1.744661 3 9 tcp 95 ------- 2 2.0 8.0 9 50
+ 1.745421 3 9 tcp 95 ------- 2 2.0 8.0 10 51
+ 1.746551 3 9 tcp 95 ------- 2 2.0 8.0 11 52
- 1.746551 3 9 tcp 95 ------- 2 2.0 8.0 9 50
+ 1.747311 3 9 tcp 95 ------- 2 2.0 8.0 12 53
- 1.748442 3 9 tcp 95 ------- 2 2.0 8.0 10 51
+ 1.748442 3 9 tcp 95 ------- 2 2.0 8.0 13 54
+ 1.749202 3 9 tcp 95 ------- 2 2.0 8.0 14 55
- 1.750333 3 9 tcp 95 ------- 2 2.0 8.0 11 52
- 1.752223 3 9 tcp 95 ------- 2 2.0 8.0 12 53
- 1.754114 3 9 tcp 95 ------- 2 2.0 8.0 13 54
- 1.756005 3 9 tcp 95 ------- 2 2.0 8.0 14 55
+ 1.767873 7 9 ack 40 ------- 1 7.0 1.0 14 56
- 1.767873 7 9 ack 40 ------- 1 7.0 1.0 14 56
+ 1.769138 7 9 ack 40 ------- 1 7.0 1.0 15 57
- 1.769138 7 9 ack 40 ------- 1 7.0 1.0 15 57
+ 1.770404 7 9 ack 40 ------- 1 7.0 1.0 16 58
- 1.770404 7 9 ack 40 ------- 1 7.0 1.0 16 58
+ 1.77167 7 9 ack 40 ------- 1 7.0 1.0 17 59
- 1.77167 7 9 ack 40 ------- 1 7.0 1.0 17 59
+ 1.772935 7 9 ack 40 ------- 1 7.0 1.0 18 60
- 1.772935 7 9 ack 40 ------- 1 7.0 1.0 18 60
+ 1.774201 7 9 ack 40 ------- 1 7.0 1.0 19 61
- 1.774201 7 9 ack 40 ------- 1 7.0 1.0 19 61
r 1.784477 9 8 tcp 95 ------- 2 2.0 8.0 7 48
h 1.784477 8 9 ack 40 ------- 2 8.0 2.0 7 62
r 1.786368 9 8 tcp 95 ------- 2 2.0 8.0 8 49
h 1.786368 8 9 ack 40 ------- 2 8.0 2.0 8 63
r 1.788259 9 8 tcp 95 ------- 2 2.0 8.0 9 50
h 1.788259 8 9 ack 40 ------- 2 8.0 2.0 9 64
r 1.790149 9 8 tcp 95 ------- 2 2.0 8.0 10 51
h 1.790149 8 9 ack 40 ------- 2 8.0 2.0 10 65
r 1.79204 9 8 tcp 95 ------- 2 2.0 8.0 11 52
h 1.79204 8 9 ack 40 ------- 2 8.0 2.0 11 66
r 1.79393 9 8 tcp 95 ------- 2 2.0 8.0 12 53
h 1.79393 8 9 ack 40 ------- 2 8.0 2.0 12 67
r 1.795821 9 8 tcp 95 ------- 2 2.0 8.0 13 54
h 1.795821 8 9 ack 40 ------- 2 8.0 2.0 13 68
r 1.797712 9 8 tcp 95 ------- 2 2.0 8.0 14 55
h 1.797712 8 9 ack 40 ------- 2 8.0 2.0 14 69
r 1.808877 9 3 ack 40 ------- 1 7.0 1.0 14 56
+ 1.808877 3 0 ack 40 ------- 1 7.0 1.0 14 56
- 1.808877 3 0 ack 40 ------- 1 7.0 1.0 14 56
r 1.810142 9 3 ack 40 ------- 1 7.0 1.0 15 57
+ 1.810142 3 0 ack 40 ------- 1 7.0 1.0 15 57
- 1.810142 3 0 ack 40 ------- 1 7.0 1.0 15 57
r 1.811408 9 3 ack 40 ------- 1 7.0 1.0 16 58
+ 1.811408 3 0 ack 40 ------- 1 7.0 1.0 16 58
- 1.811408 3 0 ack 40 ------- 1 7.0 1.0 16 58
r 1.812674 9 3 ack 40 ------- 1 7.0 1.0 17 59
+ 1.812674 3 0 ack 40 ------- 1 7.0 1.0 17 59
- 1.812674 3 0 ack 40 ------- 1 7.0 1.0 17 59
r 1.813939 9 3 ack 40 ------- 1 7.0 1.0 18 60
+ 1.813939 3 0 ack 40 ------- 1 7.0 1.0 18 60
- 1.813939 3 0 ack 40 ------- 1 7.0 1.0 18 60
r 1.815205 9 3 ack 40 ------- 1 7.0 1.0 19 61
+ 1.815205 3 0 ack 40 ------- 1 7.0 1.0 19 61
- 1.815205 3 0 ack 40 ------- 1 7.0 1.0 19 61
+ 1.824477 8 9 ack 40 ------- 2 8.0 2.0 7 62
- 1.824477 8 9 ack 40 ------- 2 8.0 2.0 7 62
+ 1.826368 8 9 ack 40 ------- 2 8.0 2.0 8 63
- 1.826368 8 9 ack 40 ------- 2 8.0 2.0 8 63
+ 1.828259 8 9 ack 40 ------- 2 8.0 2.0 9 64
- 1.828259 8 9 ack 40 ------- 2 8.0 2.0 9 64
r 1.829197 3 0 ack 40 ------- 1 7.0 1.0 14 56
+ 1.829197 0 1 ack 40 ------- 1 7.0 1.0 14 56
- 1.829197 0 1 ack 40 ------- 1 7.0 1.0 14 56
+ 1.830149 8 9 ack 40 ------- 2 8.0 2.0 10 65
- 1.830149 8 9 ack 40 ------- 2 8.0 2.0 10 65
r 1.830462 3 0 ack 40 ------- 1 7.0 1.0 15 57
+ 1.830462 0 1 ack 40 ------- 1 7.0 1.0 15 57
- 1.830462 0 1 ack 40 ------- 1 7.0 1.0 15 57
r 1.831728 3 0 ack 40 ------- 1 7.0 1.0 16 58
+ 1.831728 0 1 ack 40 ------- 1 7.0 1.0 16 58
- 1.831728 0 1 ack 40 ------- 1 7.0 1.0 16 58
+ 1.83204 8 9 ack 40 ------- 2 8.0 2.0 11 66
- 1.83204 8 9 ack 40 ------- 2 8.0 2.0 11 66
r 1.832994 3 0 ack 40 ------- 1 7.0 1.0 17 59
+ 1.832994 0 1 ack 40 ------- 1 7.0 1.0 17 59
- 1.832994 0 1 ack 40 ------- 1 7.0 1.0 17 59
+ 1.83393 8 9 ack 40 ------- 2 8.0 2.0 12 67
- 1.83393 8 9 ack 40 ------- 2 8.0 2.0 12 67
r 1.834259 3 0 ack 40 ------- 1 7.0 1.0 18 60
+ 1.834259 0 1 ack 40 ------- 1 7.0 1.0 18 60
- 1.834259 0 1 ack 40 ------- 1 7.0 1.0 18 60
r 1.835525 3 0 ack 40 ------- 1 7.0 1.0 19 61
+ 1.835525 0 1 ack 40 ------- 1 7.0 1.0 19 61
- 1.835525 0 1 ack 40 ------- 1 7.0 1.0 19 61
+ 1.835821 8 9 ack 40 ------- 2 8.0 2.0 13 68
- 1.835821 8 9 ack 40 ------- 2 8.0 2.0 13 68
+ 1.837712 8 9 ack 40 ------- 2 8.0 2.0 14 69
- 1.837712 8 9 ack 40 ------- 2 8.0 2.0 14 69
r 1.839357 0 1 ack 40 ------- 1 7.0 1.0 14 56
+ 1.839357 1 0 tcp 55 ------- 1 1.0 7.0 20 70
- 1.839357 1 0 tcp 55 ------- 1 1.0 7.0 20 70
+ 1.839357 1 0 tcp 55 ------- 1 1.0 7.0 21 71
- 1.839577 1 0 tcp 55 ------- 1 1.0 7.0 21 71
r 1.840622 0 1 ack 40 ------- 1 7.0 1.0 15 57
+ 1.840622 1 0 tcp 55 ------- 1 1.0 7.0 22 72
- 1.840622 1 0 tcp 55 ------- 1 1.0 7.0 22 72
+ 1.840622 1 0 tcp 55 ------- 1 1.0 7.0 23 73
- 1.840842 1 0 tcp 55 ------- 1 1.0 7.0 23 73
r 1.841888 0 1 ack 40 ------- 1 7.0 1.0 16 58
+ 1.841888 1 0 tcp 55 ------- 1 1.0 7.0 24 74
- 1.841888 1 0 tcp 55 ------- 1 1.0 7.0 24 74
+ 1.841888 1 0 tcp 55 ------- 1 1.0 7.0 25 75
- 1.842108 1 0 tcp 55 ------- 1 1.0 7.0 25 75
r 1.843154 0 1 ack 40 ------- 1 7.0 1.0 17 59
+ 1.843154 1 0 tcp 55 ------- 1 1.0 7.0 26 76
- 1.843154 1 0 tcp 55 ------- 1 1.0 7.0 26 76
+ 1.843154 1 0 tcp 55 ------- 1 1.0 7.0 27 77
- 1.843374 1 0 tcp 55 ------- 1 1.0 7.0 27 77
r 1.844419 0 1 ack 40 ------- 1 7.0 1.0 18 60
+ 1.844419 1 0 tcp 55 ------- 1 1.0 7.0 28 78
- 1.844419 1 0 tcp 55 ------- 1 1.0 7.0 28 78
+ 1.844419 1 0 tcp 55 ------- 1 1.0 7.0 29 79
- 1.844639 1 0 tcp 55 ------- 1 1.0 7.0 29 79
r 1.845685 0 1 ack 40 ------- 1 7.0 1.0 19 61
+ 1.845685 1 0 tcp 55 ------- 1 1.0 7.0 30 80